# OOMMF: irregular mesh v1.0
# Segment count: 1
# Begin: Segment
# Begin: Header
# Title: m
# Desc: Total simulation time:  0  s
# meshtype: irregular
# meshunit: m
# pointcount: 2500
# xstepsize: 2.0000000000000001e-09
# ystepsize: 2.0000000000000001e-09
# zstepsize: 2.0000000000000001e-09
# xmin: 0
# ymin: 0
# zmin: 0
# xmax: 1.0000000000000001e-07
# ymax: 1.0000000000000001e-07
# zmax: 2.0000000000000001e-09
# valueunit: 1
# valuemultiplier: 1
# ValueRangeMinMag: 0.99999995756025617
# ValueRangeMaxMag: 1.00000013971222
# End: Header
# Begin: Data Text
 1.0000000000000001e-09  1.0000000000000001e-09  1.0000000000000001e-09  0.0000000000000000  0.0000000000000000  0.0000000000000000
 3.0000000000000004e-09  1.0000000000000001e-09  1.0000000000000001e-09  0.0000000000000000  0.0000000000000000  0.0000000000000000
 5.0000000000000001e-09  1.0000000000000001e-09  1.0000000000000001e-09  0.0000000000000000  0.0000000000000000  0.0000000000000000
 7.0000000000000006e-09  1.0000000000000001e-09  1.0000000000000001e-09  0.0000000000000000  0.0000000000000000  0.0000000000000000
 9.0000000000000012e-09  1.0000000000000001e-09  1.0000000000000001e-09  0.0000000000000000  0.0000000000000000  0.0000000000000000
 1.1000000000000001e-08  1.0000000000000001e-09  1.0000000000000001e-09  0.0000000000000000  0.0000000000000000  0.0000000000000000
 1.3000000000000002e-08  1.0000000000000001e-09  1.0000000000000001e-09  0.0000000000000000  0.0000000000000000  0.0000000000000000
 1.5000000000000002e-08  1.0000000000000001e-09  1.0000000000000001e-09  0.0000000000000000  0.0000000000000000  0.0000000000000000
 1.7000000000000000e-08  1.0000000000000001e-09  1.0000000000000001e-09  0.0000000000000000  0.0000000000000000  0.0000000000000000
 1.9000000000000001e-08  1.0000000000000001e-09  1.0000000000000001e-09  0.0000000000000000  0.0000000000000000  0.0000000000000000
 2.0999999999999999e-08  1.0000000000000001e-09  1.0000000000000001e-09  0.0000000000000000  0.0000000000000000  0.0000000000000000
 2.3000000000000001e-08  1.0000000000000001e-09  1.0000000000000001e-09  0.0000000000000000  0.0000000000000000  0.0000000000000000
 2.5000000000000002e-08  1.0000000000000001e-09  1.0000000000000001e-09  0.0000000000000000  0.0000000000000000  0.0000000000000000
 2.7000000000000000e-08  1.0000000000000001e-09  1.0000000000000001e-09  0.0000000000000000  0.0000000000000000  0.0000000000000000
 2.9000000000000002e-08  1.0000000000000001e-09  1.0000000000000001e-09  0.0000000000000000  0.0000000000000000  0.0000000000000000
 3.1000000000000006e-08  1.0000000000000001e-09  1.0000000000000001e-09  0.0000000000000000  0.0000000000000000  0.0000000000000000
 3.3000000000000004e-08  1.0000000000000001e-09  1.0000000000000001e-09  0.0000000000000000  0.0000000000000000  0.0000000000000000
 3.5000000000000002e-08  1.0000000000000001e-09  1.0000000000000001e-09  0.0000000000000000  0.0000000000000000  0.0000000000000000
 3.7000000000000007e-08  1.0000000000000001e-09  1.0000000000000001e-09  0.0000000000000000  0.0000000000000000  0.0000000000000000
 3.9000000000000005e-08  1.0000000000000001e-09  1.0000000000000001e-09  0.0000000000000000  0.0000000000000000  0.0000000000000000
 4.1000000000000003e-08  1.0000000000000001e-09  1.0000000000000001e-09  0.18220866999999999  0.54747930000000000 -0.81674146999999997
 4.3000000000000008e-08  1.0000000000000001e-09  1.0000000000000001e-09  0.098400280000000007  0.54394823000000003 -0.83332940000000000
 4.5000000000000006e-08  1.0000000000000001e-09  1.0000000000000001e-09  0.054172665000000002  0.54022557000000004 -0.83977484999999996
 4.7000000000000004e-08  1.0000000000000001e-09  1.0000000000000001e-09  0.027409897999999999  0.53788775000000000 -0.84257070000000001
 4.9000000000000009e-08  1.0000000000000001e-09  1.0000000000000001e-09  0.0083916830000000005  0.53681780000000001 -0.84365654000000001
 5.1000000000000007e-08  1.0000000000000001e-09  1.0000000000000001e-09 -0.0083916679999999997  0.53681780000000001 -0.84365654000000001
 5.3000000000000005e-08  1.0000000000000001e-09  1.0000000000000001e-09 -0.027409922000000000  0.53788780000000003 -0.84257070000000001
 5.5000000000000003e-08  1.0000000000000001e-09  1.0000000000000001e-09 -0.054172650000000003  0.54022557000000004 -0.83977484999999996
 5.7000000000000007e-08  1.0000000000000001e-09  1.0000000000000001e-09 -0.098400269999999998  0.54394823000000003 -0.83332930000000005
 5.9000000000000006e-08  1.0000000000000001e-09  1.0000000000000001e-09 -0.18220865999999999  0.54747930000000000 -0.81674139999999995
 6.1000000000000004e-08  1.0000000000000001e-09  1.0000000000000001e-09  0.0000000000000000  0.0000000000000000  0.0000000000000000
 6.2999999999999995e-08  1.0000000000000001e-09  1.0000000000000001e-09  0.0000000000000000  0.0000000000000000  0.0000000000000000
 6.5000000000000000e-08  1.0000000000000001e-09  1.0000000000000001e-09  0.0000000000000000  0.0000000000000000  0.0000000000000000
 6.7000000000000004e-08  1.0000000000000001e-09  1.0000000000000001e-09  0.0000000000000000  0.0000000000000000  0.0000000000000000
 6.8999999999999996e-08  1.0000000000000001e-09  1.0000000000000001e-09  0.0000000000000000  0.0000000000000000  0.0000000000000000
 7.1000000000000000e-08  1.0000000000000001e-09  1.0000000000000001e-09  0.0000000000000000  0.0000000000000000  0.0000000000000000
 7.3000000000000005e-08  1.0000000000000001e-09  1.0000000000000001e-09  0.0000000000000000  0.0000000000000000  0.0000000000000000
 7.4999999999999997e-08  1.0000000000000001e-09  1.0000000000000001e-09  0.0000000000000000  0.0000000000000000  0.0000000000000000
 7.7000000000000001e-08  1.0000000000000001e-09  1.0000000000000001e-09  0.0000000000000000  0.0000000000000000  0.0000000000000000
 7.9000000000000006e-08  1.0000000000000001e-09  1.0000000000000001e-09  0.0000000000000000  0.0000000000000000  0.0000000000000000
 8.0999999999999997e-08  1.0000000000000001e-09  1.0000000000000001e-09  0.0000000000000000  0.0000000000000000  0.0000000000000000
 8.3000000000000002e-08  1.0000000000000001e-09  1.0000000000000001e-09  0.0000000000000000  0.0000000000000000  0.0000000000000000
 8.5000000000000007e-08  1.0000000000000001e-09  1.0000000000000001e-09  0.0000000000000000  0.0000000000000000  0.0000000000000000
 8.6999999999999998e-08  1.0000000000000001e-09  1.0000000000000001e-09  0.0000000000000000  0.0000000000000000  0.0000000000000000
 8.9000000000000003e-08  1.0000000000000001e-09  1.0000000000000001e-09  0.0000000000000000  0.0000000000000000  0.0000000000000000
 9.1000000000000008e-08  1.0000000000000001e-09  1.0000000000000001e-09  0.0000000000000000  0.0000000000000000  0.0000000000000000
 9.2999999999999999e-08  1.0000000000000001e-09  1.0000000000000001e-09  0.0000000000000000  0.0000000000000000  0.0000000000000000
 9.5000000000000004e-08  1.0000000000000001e-09  1.0000000000000001e-09  0.0000000000000000  0.0000000000000000  0.0000000000000000
 9.7000000000000008e-08  1.0000000000000001e-09  1.0000000000000001e-09  0.0000000000000000  0.0000000000000000  0.0000000000000000
 9.9000000000000000e-08  1.0000000000000001e-09  1.0000000000000001e-09  0.0000000000000000  0.0000000000000000  0.0000000000000000
 1.0000000000000001e-09  3.0000000000000004e-09  1.0000000000000001e-09  0.0000000000000000  0.0000000000000000  0.0000000000000000
 3.0000000000000004e-09  3.0000000000000004e-09  1.0000000000000001e-09  0.0000000000000000  0.0000000000000000  0.0000000000000000
 5.0000000000000001e-09  3.0000000000000004e-09  1.0000000000000001e-09  0.0000000000000000  0.0000000000000000  0.0000000000000000
 7.0000000000000006e-09  3.0000000000000004e-09  1.0000000000000001e-09  0.0000000000000000  0.0000000000000000  0.0000000000000000
 9.0000000000000012e-09  3.0000000000000004e-09  1.0000000000000001e-09  0.0000000000000000  0.0000000000000000  0.0000000000000000
 1.1000000000000001e-08  3.0000000000000004e-09  1.0000000000000001e-09  0.0000000000000000  0.0000000000000000  0.0000000000000000
 1.3000000000000002e-08  3.0000000000000004e-09  1.0000000000000001e-09  0.0000000000000000  0.0000000000000000  0.0000000000000000
 1.5000000000000002e-08  3.0000000000000004e-09  1.0000000000000001e-09  0.0000000000000000  0.0000000000000000  0.0000000000000000
 1.7000000000000000e-08  3.0000000000000004e-09  1.0000000000000001e-09  0.0000000000000000  0.0000000000000000  0.0000000000000000
 1.9000000000000001e-08  3.0000000000000004e-09  1.0000000000000001e-09  0.0000000000000000  0.0000000000000000  0.0000000000000000
 2.0999999999999999e-08  3.0000000000000004e-09  1.0000000000000001e-09  0.0000000000000000  0.0000000000000000  0.0000000000000000
 2.3000000000000001e-08  3.0000000000000004e-09  1.0000000000000001e-09  0.0000000000000000  0.0000000000000000  0.0000000000000000
 2.5000000000000002e-08  3.0000000000000004e-09  1.0000000000000001e-09  0.0000000000000000  0.0000000000000000  0.0000000000000000
 2.7000000000000000e-08  3.0000000000000004e-09  1.0000000000000001e-09  0.0000000000000000  0.0000000000000000  0.0000000000000000
 2.9000000000000002e-08  3.0000000000000004e-09  1.0000000000000001e-09  0.0000000000000000  0.0000000000000000  0.0000000000000000
 3.1000000000000006e-08  3.0000000000000004e-09  1.0000000000000001e-09  0.0000000000000000  0.0000000000000000  0.0000000000000000
 3.3000000000000004e-08  3.0000000000000004e-09  1.0000000000000001e-09  0.23386688999999999  0.52813350000000003 -0.81632179999999999
 3.5000000000000002e-08  3.0000000000000004e-09  1.0000000000000001e-09  0.14711583000000000  0.51795230000000003 -0.84266379999999996
 3.7000000000000007e-08  3.0000000000000004e-09  1.0000000000000001e-09  0.10552758000000000  0.50073020000000001 -0.85914683000000003
 3.9000000000000005e-08  3.0000000000000004e-09  1.0000000000000001e-09  0.091165066000000003  0.47388890000000000 -0.87585299999999999
 4.1000000000000003e-08  3.0000000000000004e-09  1.0000000000000001e-09  0.10099469000000000  0.42545420000000000 -0.89932685999999995
 4.3000000000000008e-08  3.0000000000000004e-09  1.0000000000000001e-09  0.071436580000000000  0.40383053000000002 -0.91204050000000003
 4.5000000000000006e-08  3.0000000000000004e-09  1.0000000000000001e-09  0.044148105999999999  0.39364257000000002 -0.91820290000000004
 4.7000000000000004e-08  3.0000000000000004e-09  1.0000000000000001e-09  0.023525310000000001  0.38875088000000002 -0.92104255999999995
 4.9000000000000009e-08  3.0000000000000004e-09  1.0000000000000001e-09  0.0073503745000000004  0.38674061999999998 -0.92215930000000002
 5.1000000000000007e-08  3.0000000000000004e-09  1.0000000000000001e-09 -0.0073503730000000003  0.38674065000000002 -0.92215930000000002
 5.3000000000000005e-08  3.0000000000000004e-09  1.0000000000000001e-09 -0.023525290000000001  0.38875075999999997 -0.92104255999999995
 5.5000000000000003e-08  3.0000000000000004e-09  1.0000000000000001e-09 -0.044148117000000001  0.39364265999999998 -0.91820279999999999
 5.7000000000000007e-08  3.0000000000000004e-09  1.0000000000000001e-09 -0.071436553999999999  0.40383059999999998 -0.91204039999999997
 5.9000000000000006e-08  3.0000000000000004e-09  1.0000000000000001e-09 -0.10099468000000000  0.42545420000000000 -0.89932685999999995
 6.1000000000000004e-08  3.0000000000000004e-09  1.0000000000000001e-09 -0.091165060000000006  0.47388890000000000 -0.87585290000000005
 6.2999999999999995e-08  3.0000000000000004e-09  1.0000000000000001e-09 -0.10552759500000000  0.50073020000000001 -0.85914679999999999
 6.5000000000000000e-08  3.0000000000000004e-09  1.0000000000000001e-09 -0.14711585999999999  0.51795230000000003 -0.84266379999999996
 6.7000000000000004e-08  3.0000000000000004e-09  1.0000000000000001e-09 -0.23386689999999999  0.52813359999999998 -0.81632179999999999
 6.8999999999999996e-08  3.0000000000000004e-09  1.0000000000000001e-09  0.0000000000000000  0.0000000000000000  0.0000000000000000
 7.1000000000000000e-08  3.0000000000000004e-09  1.0000000000000001e-09  0.0000000000000000  0.0000000000000000  0.0000000000000000
 7.3000000000000005e-08  3.0000000000000004e-09  1.0000000000000001e-09  0.0000000000000000  0.0000000000000000  0.0000000000000000
 7.4999999999999997e-08  3.0000000000000004e-09  1.0000000000000001e-09  0.0000000000000000  0.0000000000000000  0.0000000000000000
 7.7000000000000001e-08  3.0000000000000004e-09  1.0000000000000001e-09  0.0000000000000000  0.0000000000000000  0.0000000000000000
 7.9000000000000006e-08  3.0000000000000004e-09  1.0000000000000001e-09  0.0000000000000000  0.0000000000000000  0.0000000000000000
 8.0999999999999997e-08  3.0000000000000004e-09  1.0000000000000001e-09  0.0000000000000000  0.0000000000000000  0.0000000000000000
 8.3000000000000002e-08  3.0000000000000004e-09  1.0000000000000001e-09  0.0000000000000000  0.0000000000000000  0.0000000000000000
 8.5000000000000007e-08  3.0000000000000004e-09  1.0000000000000001e-09  0.0000000000000000  0.0000000000000000  0.0000000000000000
 8.6999999999999998e-08  3.0000000000000004e-09  1.0000000000000001e-09  0.0000000000000000  0.0000000000000000  0.0000000000000000
 8.9000000000000003e-08  3.0000000000000004e-09  1.0000000000000001e-09  0.0000000000000000  0.0000000000000000  0.0000000000000000
 9.1000000000000008e-08  3.0000000000000004e-09  1.0000000000000001e-09  0.0000000000000000  0.0000000000000000  0.0000000000000000
 9.2999999999999999e-08  3.0000000000000004e-09  1.0000000000000001e-09  0.0000000000000000  0.0000000000000000  0.0000000000000000
 9.5000000000000004e-08  3.0000000000000004e-09  1.0000000000000001e-09  0.0000000000000000  0.0000000000000000  0.0000000000000000
 9.7000000000000008e-08  3.0000000000000004e-09  1.0000000000000001e-09  0.0000000000000000  0.0000000000000000  0.0000000000000000
 9.9000000000000000e-08  3.0000000000000004e-09  1.0000000000000001e-09  0.0000000000000000  0.0000000000000000  0.0000000000000000
 1.0000000000000001e-09  5.0000000000000001e-09  1.0000000000000001e-09  0.0000000000000000  0.0000000000000000  0.0000000000000000
 3.0000000000000004e-09  5.0000000000000001e-09  1.0000000000000001e-09  0.0000000000000000  0.0000000000000000  0.0000000000000000
 5.0000000000000001e-09  5.0000000000000001e-09  1.0000000000000001e-09  0.0000000000000000  0.0000000000000000  0.0000000000000000
 7.0000000000000006e-09  5.0000000000000001e-09  1.0000000000000001e-09  0.0000000000000000  0.0000000000000000  0.0000000000000000
 9.0000000000000012e-09  5.0000000000000001e-09  1.0000000000000001e-09  0.0000000000000000  0.0000000000000000  0.0000000000000000
 1.1000000000000001e-08  5.0000000000000001e-09  1.0000000000000001e-09  0.0000000000000000  0.0000000000000000  0.0000000000000000
 1.3000000000000002e-08  5.0000000000000001e-09  1.0000000000000001e-09  0.0000000000000000  0.0000000000000000  0.0000000000000000
 1.5000000000000002e-08  5.0000000000000001e-09  1.0000000000000001e-09  0.0000000000000000  0.0000000000000000  0.0000000000000000
 1.7000000000000000e-08  5.0000000000000001e-09  1.0000000000000001e-09  0.0000000000000000  0.0000000000000000  0.0000000000000000
 1.9000000000000001e-08  5.0000000000000001e-09  1.0000000000000001e-09  0.0000000000000000  0.0000000000000000  0.0000000000000000
 2.0999999999999999e-08  5.0000000000000001e-09  1.0000000000000001e-09  0.0000000000000000  0.0000000000000000  0.0000000000000000
 2.3000000000000001e-08  5.0000000000000001e-09  1.0000000000000001e-09  0.0000000000000000  0.0000000000000000  0.0000000000000000
 2.5000000000000002e-08  5.0000000000000001e-09  1.0000000000000001e-09  0.0000000000000000  0.0000000000000000  0.0000000000000000
 2.7000000000000000e-08  5.0000000000000001e-09  1.0000000000000001e-09  0.0000000000000000  0.0000000000000000  0.0000000000000000
 2.9000000000000002e-08  5.0000000000000001e-09  1.0000000000000001e-09  0.26791587000000000  0.48965189999999997 -0.82973620000000003
 3.1000000000000006e-08  5.0000000000000001e-09  1.0000000000000001e-09  0.18630055000000001  0.46450690000000000 -0.86575150000000001
 3.3000000000000004e-08  5.0000000000000001e-09  1.0000000000000001e-09  0.16130836000000001  0.41059497000000000 -0.89743600000000001
 3.5000000000000002e-08  5.0000000000000001e-09  1.0000000000000001e-09  0.11907805000000000  0.38090059999999998 -0.91691613000000005
 3.7000000000000007e-08  5.0000000000000001e-09  1.0000000000000001e-09  0.089352249999999994  0.35797155000000003 -0.92944753000000002
 3.9000000000000005e-08  5.0000000000000001e-09  1.0000000000000001e-09  0.073213280000000006  0.33402480000000001 -0.93971663999999999
 4.1000000000000003e-08  5.0000000000000001e-09  1.0000000000000001e-09  0.065175380000000005  0.30642944999999999 -0.94965946999999995
 4.3000000000000008e-08  5.0000000000000001e-09  1.0000000000000001e-09  0.049107815999999999  0.28750476000000003 -0.95651953999999995
 4.5000000000000006e-08  5.0000000000000001e-09  1.0000000000000001e-09  0.032378486999999997  0.27629506999999998 -0.96052736000000005
 4.7000000000000004e-08  5.0000000000000001e-09  1.0000000000000001e-09  0.017983566999999999  0.27023124999999998 -0.96262753000000001
 4.9000000000000009e-08  5.0000000000000001e-09  1.0000000000000001e-09  0.0057289437000000000  0.26758971999999998 -0.96351600000000004
 5.1000000000000007e-08  5.0000000000000001e-09  1.0000000000000001e-09 -0.0057289469999999999  0.26758971999999998 -0.96351600000000004
 5.3000000000000005e-08  5.0000000000000001e-09  1.0000000000000001e-09 -0.017983572999999999  0.27023130000000001 -0.96262749999999997
 5.5000000000000003e-08  5.0000000000000001e-09  1.0000000000000001e-09 -0.032378483999999999  0.27629503999999999 -0.96052729999999997
 5.7000000000000007e-08  5.0000000000000001e-09  1.0000000000000001e-09 -0.049107829999999998  0.28750476000000003 -0.95651940000000002
 5.9000000000000006e-08  5.0000000000000001e-09  1.0000000000000001e-09 -0.065175360000000002  0.30642947999999998 -0.94965949999999999
 6.1000000000000004e-08  5.0000000000000001e-09  1.0000000000000001e-09 -0.073213249999999994  0.33402484999999998 -0.93971663999999999
 6.2999999999999995e-08  5.0000000000000001e-09  1.0000000000000001e-09 -0.089352269999999998  0.35797160000000000 -0.92944740000000003
 6.5000000000000000e-08  5.0000000000000001e-09  1.0000000000000001e-09 -0.11907805000000000  0.38090067999999999 -0.91691613000000005
 6.7000000000000004e-08  5.0000000000000001e-09  1.0000000000000001e-09 -0.16130841000000001  0.41059499999999999 -0.89743600000000001
 6.8999999999999996e-08  5.0000000000000001e-09  1.0000000000000001e-09 -0.18630055000000001  0.46450682999999998 -0.86575139999999995
 7.1000000000000000e-08  5.0000000000000001e-09  1.0000000000000001e-09 -0.26791593000000002  0.48965199999999998 -0.82973622999999996
 7.3000000000000005e-08  5.0000000000000001e-09  1.0000000000000001e-09  0.0000000000000000  0.0000000000000000  0.0000000000000000
 7.4999999999999997e-08  5.0000000000000001e-09  1.0000000000000001e-09  0.0000000000000000  0.0000000000000000  0.0000000000000000
 7.7000000000000001e-08  5.0000000000000001e-09  1.0000000000000001e-09  0.0000000000000000  0.0000000000000000  0.0000000000000000
 7.9000000000000006e-08  5.0000000000000001e-09  1.0000000000000001e-09  0.0000000000000000  0.0000000000000000  0.0000000000000000
 8.0999999999999997e-08  5.0000000000000001e-09  1.0000000000000001e-09  0.0000000000000000  0.0000000000000000  0.0000000000000000
 8.3000000000000002e-08  5.0000000000000001e-09  1.0000000000000001e-09  0.0000000000000000  0.0000000000000000  0.0000000000000000
 8.5000000000000007e-08  5.0000000000000001e-09  1.0000000000000001e-09  0.0000000000000000  0.0000000000000000  0.0000000000000000
 8.6999999999999998e-08  5.0000000000000001e-09  1.0000000000000001e-09  0.0000000000000000  0.0000000000000000  0.0000000000000000
 8.9000000000000003e-08  5.0000000000000001e-09  1.0000000000000001e-09  0.0000000000000000  0.0000000000000000  0.0000000000000000
 9.1000000000000008e-08  5.0000000000000001e-09  1.0000000000000001e-09  0.0000000000000000  0.0000000000000000  0.0000000000000000
 9.2999999999999999e-08  5.0000000000000001e-09  1.0000000000000001e-09  0.0000000000000000  0.0000000000000000  0.0000000000000000
 9.5000000000000004e-08  5.0000000000000001e-09  1.0000000000000001e-09  0.0000000000000000  0.0000000000000000  0.0000000000000000
 9.7000000000000008e-08  5.0000000000000001e-09  1.0000000000000001e-09  0.0000000000000000  0.0000000000000000  0.0000000000000000
 9.9000000000000000e-08  5.0000000000000001e-09  1.0000000000000001e-09  0.0000000000000000  0.0000000000000000  0.0000000000000000
 1.0000000000000001e-09  7.0000000000000006e-09  1.0000000000000001e-09  0.0000000000000000  0.0000000000000000  0.0000000000000000
 3.0000000000000004e-09  7.0000000000000006e-09  1.0000000000000001e-09  0.0000000000000000  0.0000000000000000  0.0000000000000000
 5.0000000000000001e-09  7.0000000000000006e-09  1.0000000000000001e-09  0.0000000000000000  0.0000000000000000  0.0000000000000000
 7.0000000000000006e-09  7.0000000000000006e-09  1.0000000000000001e-09  0.0000000000000000  0.0000000000000000  0.0000000000000000
 9.0000000000000012e-09  7.0000000000000006e-09  1.0000000000000001e-09  0.0000000000000000  0.0000000000000000  0.0000000000000000
 1.1000000000000001e-08  7.0000000000000006e-09  1.0000000000000001e-09  0.0000000000000000  0.0000000000000000  0.0000000000000000
 1.3000000000000002e-08  7.0000000000000006e-09  1.0000000000000001e-09  0.0000000000000000  0.0000000000000000  0.0000000000000000
 1.5000000000000002e-08  7.0000000000000006e-09  1.0000000000000001e-09  0.0000000000000000  0.0000000000000000  0.0000000000000000
 1.7000000000000000e-08  7.0000000000000006e-09  1.0000000000000001e-09  0.0000000000000000  0.0000000000000000  0.0000000000000000
 1.9000000000000001e-08  7.0000000000000006e-09  1.0000000000000001e-09  0.0000000000000000  0.0000000000000000  0.0000000000000000
 2.0999999999999999e-08  7.0000000000000006e-09  1.0000000000000001e-09  0.0000000000000000  0.0000000000000000  0.0000000000000000
 2.3000000000000001e-08  7.0000000000000006e-09  1.0000000000000001e-09  0.0000000000000000  0.0000000000000000  0.0000000000000000
 2.5000000000000002e-08  7.0000000000000006e-09  1.0000000000000001e-09  0.30524495000000001  0.47327277000000001 -0.82634050000000003
 2.7000000000000000e-08  7.0000000000000006e-09  1.0000000000000001e-09  0.21795165999999999  0.44461653000000001 -0.86880000000000002
 2.9000000000000002e-08  7.0000000000000006e-09  1.0000000000000001e-09  0.19061634000000000  0.38068960000000002 -0.90484310000000001
 3.1000000000000006e-08  7.0000000000000006e-09  1.0000000000000001e-09  0.14806510000000001  0.33893173999999998 -0.92908670000000004
 3.3000000000000004e-08  7.0000000000000006e-09  1.0000000000000001e-09  0.11831993600000000  0.30024265999999999 -0.94649609999999995
 3.5000000000000002e-08  7.0000000000000006e-09  1.0000000000000001e-09  0.090178289999999994  0.27127730000000000 -0.95826750000000005
 3.7000000000000007e-08  7.0000000000000006e-09  1.0000000000000001e-09  0.068505704000000001  0.24831183000000001 -0.96625479999999997
 3.9000000000000005e-08  7.0000000000000006e-09  1.0000000000000001e-09  0.053903803000000000  0.22760822999999999 -0.97225969999999995
 4.1000000000000003e-08  7.0000000000000006e-09  1.0000000000000001e-09  0.043573689999999998  0.20810210000000001 -0.97713609999999995
 4.3000000000000008e-08  7.0000000000000006e-09  1.0000000000000001e-09  0.032673679999999997  0.19294620000000001 -0.98066520000000001
 4.5000000000000006e-08  7.0000000000000006e-09  1.0000000000000001e-09  0.021997493000000000  0.18266182000000000 -0.98292977000000004
 4.7000000000000004e-08  7.0000000000000006e-09  1.0000000000000001e-09  0.012459107000000001  0.17649372999999999 -0.98422295000000004
 4.9000000000000009e-08  7.0000000000000006e-09  1.0000000000000001e-09  0.0040111573999999997  0.17363234000000000 -0.98480237000000004
 5.1000000000000007e-08  7.0000000000000006e-09  1.0000000000000001e-09 -0.0040111486000000002  0.17363238000000000 -0.98480237000000004
 5.3000000000000005e-08  7.0000000000000006e-09  1.0000000000000001e-09 -0.012459084000000000  0.17649375000000000 -0.98422299999999996
 5.5000000000000003e-08  7.0000000000000006e-09  1.0000000000000001e-09 -0.021997467000000000  0.18266186000000001 -0.98292977000000004
 5.7000000000000007e-08  7.0000000000000006e-09  1.0000000000000001e-09 -0.032673663999999998  0.19294623999999999 -0.98066514999999999
 5.9000000000000006e-08  7.0000000000000006e-09  1.0000000000000001e-09 -0.043573685000000001  0.20810219999999999 -0.97713609999999995
 6.1000000000000004e-08  7.0000000000000006e-09  1.0000000000000001e-09 -0.053903810000000003  0.22760831000000001 -0.97225969999999995
 6.2999999999999995e-08  7.0000000000000006e-09  1.0000000000000001e-09 -0.068505709999999997  0.24831186000000000 -0.96625470000000002
 6.5000000000000000e-08  7.0000000000000006e-09  1.0000000000000001e-09 -0.090178300000000003  0.27127737000000002 -0.95826750000000005
 6.7000000000000004e-08  7.0000000000000006e-09  1.0000000000000001e-09 -0.11831996000000000  0.30024275000000000 -0.94649607000000002
 6.8999999999999996e-08  7.0000000000000006e-09  1.0000000000000001e-09 -0.14806512999999999  0.33893177000000002 -0.92908659999999998
 7.1000000000000000e-08  7.0000000000000006e-09  1.0000000000000001e-09 -0.19061638000000000  0.38068964999999999 -0.90484310000000001
 7.3000000000000005e-08  7.0000000000000006e-09  1.0000000000000001e-09 -0.21795169000000000  0.44461650000000003 -0.86879989999999996
 7.4999999999999997e-08  7.0000000000000006e-09  1.0000000000000001e-09 -0.30524491999999998  0.47327279999999999 -0.82634039999999997
 7.7000000000000001e-08  7.0000000000000006e-09  1.0000000000000001e-09  0.0000000000000000  0.0000000000000000  0.0000000000000000
 7.9000000000000006e-08  7.0000000000000006e-09  1.0000000000000001e-09  0.0000000000000000  0.0000000000000000  0.0000000000000000
 8.0999999999999997e-08  7.0000000000000006e-09  1.0000000000000001e-09  0.0000000000000000  0.0000000000000000  0.0000000000000000
 8.3000000000000002e-08  7.0000000000000006e-09  1.0000000000000001e-09  0.0000000000000000  0.0000000000000000  0.0000000000000000
 8.5000000000000007e-08  7.0000000000000006e-09  1.0000000000000001e-09  0.0000000000000000  0.0000000000000000  0.0000000000000000
 8.6999999999999998e-08  7.0000000000000006e-09  1.0000000000000001e-09  0.0000000000000000  0.0000000000000000  0.0000000000000000
 8.9000000000000003e-08  7.0000000000000006e-09  1.0000000000000001e-09  0.0000000000000000  0.0000000000000000  0.0000000000000000
 9.1000000000000008e-08  7.0000000000000006e-09  1.0000000000000001e-09  0.0000000000000000  0.0000000000000000  0.0000000000000000
 9.2999999999999999e-08  7.0000000000000006e-09  1.0000000000000001e-09  0.0000000000000000  0.0000000000000000  0.0000000000000000
 9.5000000000000004e-08  7.0000000000000006e-09  1.0000000000000001e-09  0.0000000000000000  0.0000000000000000  0.0000000000000000
 9.7000000000000008e-08  7.0000000000000006e-09  1.0000000000000001e-09  0.0000000000000000  0.0000000000000000  0.0000000000000000
 9.9000000000000000e-08  7.0000000000000006e-09  1.0000000000000001e-09  0.0000000000000000  0.0000000000000000  0.0000000000000000
 1.0000000000000001e-09  9.0000000000000012e-09  1.0000000000000001e-09  0.0000000000000000  0.0000000000000000  0.0000000000000000
 3.0000000000000004e-09  9.0000000000000012e-09  1.0000000000000001e-09  0.0000000000000000  0.0000000000000000  0.0000000000000000
 5.0000000000000001e-09  9.0000000000000012e-09  1.0000000000000001e-09  0.0000000000000000  0.0000000000000000  0.0000000000000000
 7.0000000000000006e-09  9.0000000000000012e-09  1.0000000000000001e-09  0.0000000000000000  0.0000000000000000  0.0000000000000000
 9.0000000000000012e-09  9.0000000000000012e-09  1.0000000000000001e-09  0.0000000000000000  0.0000000000000000  0.0000000000000000
 1.1000000000000001e-08  9.0000000000000012e-09  1.0000000000000001e-09  0.0000000000000000  0.0000000000000000  0.0000000000000000
 1.3000000000000002e-08  9.0000000000000012e-09  1.0000000000000001e-09  0.0000000000000000  0.0000000000000000  0.0000000000000000
 1.5000000000000002e-08  9.0000000000000012e-09  1.0000000000000001e-09  0.0000000000000000  0.0000000000000000  0.0000000000000000
 1.7000000000000000e-08  9.0000000000000012e-09  1.0000000000000001e-09  0.0000000000000000  0.0000000000000000  0.0000000000000000
 1.9000000000000001e-08  9.0000000000000012e-09  1.0000000000000001e-09  0.0000000000000000  0.0000000000000000  0.0000000000000000
 2.0999999999999999e-08  9.0000000000000012e-09  1.0000000000000001e-09  0.0000000000000000  0.0000000000000000  0.0000000000000000
 2.3000000000000001e-08  9.0000000000000012e-09  1.0000000000000001e-09  0.31055850000000002  0.42335015999999998 -0.85107476000000004
 2.5000000000000002e-08  9.0000000000000012e-09  1.0000000000000001e-09  0.23864283999999999  0.36666226000000002 -0.89922654999999996
 2.7000000000000000e-08  9.0000000000000012e-09  1.0000000000000001e-09  0.17975902999999999  0.32315502000000002 -0.92911655000000004
 2.9000000000000002e-08  9.0000000000000012e-09  1.0000000000000001e-09  0.14291063000000001  0.27835384000000002 -0.94978726000000002
 3.1000000000000006e-08  9.0000000000000012e-09  1.0000000000000001e-09  0.11089478999999999  0.24135149000000000 -0.96408079999999996
 3.3000000000000004e-08  9.0000000000000012e-09  1.0000000000000001e-09  0.085619955999999997  0.20976344999999999 -0.97399619999999998
 3.5000000000000002e-08  9.0000000000000012e-09  1.0000000000000001e-09  0.064578910000000003  0.18401720999999999 -0.98079930000000004
 3.7000000000000007e-08  9.0000000000000012e-09  1.0000000000000001e-09  0.048192869999999999  0.16272375000000000 -0.98549399999999998
 3.9000000000000005e-08  9.0000000000000012e-09  1.0000000000000001e-09  0.036246925999999999  0.14426859000000000 -0.98887449999999999