# OOMMF: irregular mesh v1.0
# Segment count: 1
# Begin: Segment
# Begin: Header
# Title: m
# Desc: Total simulation time:  0  s
# meshtype: irregular
# meshunit: m
# pointcount: 2500
# xstepsize: 2.0000000000000001e-09
# ystepsize: 2.0000000000000001e-09
# zstepsize: 2.0000000000000001e-09
# xmin: 0
# ymin: 0
# zmin: 0
# xmax: 1.0000000000000001e-07
# ymax: 1.0000000000000001e-07
# zmax: 2.0000000000000001e-09
# valueunit: 1
# valuemultiplier: 1
# ValueRangeMinMag: 0.99999996645688449
# ValueRangeMaxMag: 1.0000001462184984
# End: Header
# Begin: Data Text
 1.0000000000000001e-09  1.0000000000000001e-09  1.0000000000000001e-09  0.0000000000000000  0.0000000000000000  0.0000000000000000
 3.0000000000000004e-09  1.0000000000000001e-09  1.0000000000000001e-09  0.0000000000000000  0.0000000000000000  0.0000000000000000
 5.0000000000000001e-09  1.0000000000000001e-09  1.0000000000000001e-09  0.0000000000000000  0.0000000000000000  0.0000000000000000
 7.0000000000000006e-09  1.0000000000000001e-09  1.0000000000000001e-09  0.0000000000000000  0.0000000000000000  0.0000000000000000
 9.0000000000000012e-09  1.0000000000000001e-09  1.0000000000000001e-09  0.0000000000000000  0.0000000000000000  0.0000000000000000
 1.1000000000000001e-08  1.0000000000000001e-09  1.0000000000000001e-09  0.0000000000000000  0.0000000000000000  0.0000000000000000
 1.3000000000000002e-08  1.0000000000000001e-09  1.0000000000000001e-09  0.0000000000000000  0.0000000000000000  0.0000000000000000
 1.5000000000000002e-08  1.0000000000000001e-09  1.0000000000000001e-09  0.0000000000000000  0.0000000000000000  0.0000000000000000
 1.7000000000000000e-08  1.0000000000000001e-09  1.0000000000000001e-09  0.0000000000000000  0.0000000000000000  0.0000000000000000
 1.9000000000000001e-08  1.0000000000000001e-09  1.0000000000000001e-09  0.0000000000000000  0.0000000000000000  0.0000000000000000
 2.0999999999999999e-08  1.0000000000000001e-09  1.0000000000000001e-09  0.0000000000000000  0.0000000000000000  0.0000000000000000
 2.3000000000000001e-08  1.0000000000000001e-09  1.0000000000000001e-09  0.0000000000000000  0.0000000000000000  0.0000000000000000
 2.5000000000000002e-08  1.0000000000000001e-09  1.0000000000000001e-09  0.0000000000000000  0.0000000000000000  0.0000000000000000
 2.7000000000000000e-08  1.0000000000000001e-09  1.0000000000000001e-09  0.0000000000000000  0.0000000000000000  0.0000000000000000
 2.9000000000000002e-08  1.0000000000000001e-09  1.0000000000000001e-09  0.0000000000000000  0.0000000000000000  0.0000000000000000
 3.1000000000000006e-08  1.0000000000000001e-09  1.0000000000000001e-09  0.0000000000000000  0.0000000000000000  0.0000000000000000
 3.3000000000000004e-08  1.0000000000000001e-09  1.0000000000000001e-09  0.0000000000000000  0.0000000000000000  0.0000000000000000
 3.5000000000000002e-08  1.0000000000000001e-09  1.0000000000000001e-09  0.0000000000000000  0.0000000000000000  0.0000000000000000
 3.7000000000000007e-08  1.0000000000000001e-09  1.0000000000000001e-09  0.0000000000000000  0.0000000000000000  0.0000000000000000
 3.9000000000000005e-08  1.0000000000000001e-09  1.0000000000000001e-09  0.0000000000000000  0.0000000000000000  0.0000000000000000
 4.1000000000000003e-08  1.0000000000000001e-09  1.0000000000000001e-09  0.54747869999999998  0.18220863000000001 -0.81674190000000002
 4.3000000000000008e-08  1.0000000000000001e-09  1.0000000000000001e-09  0.54394770000000003  0.098400230000000005 -0.83332969999999995
 4.5000000000000006e-08  1.0000000000000001e-09  1.0000000000000001e-09  0.54022484999999998  0.054172604999999999 -0.83977530000000000
 4.7000000000000004e-08  1.0000000000000001e-09  1.0000000000000001e-09  0.53788720000000001  0.027409893000000001 -0.84257119999999996
 4.9000000000000009e-08  1.0000000000000001e-09  1.0000000000000001e-09  0.53681712999999998  0.0083916410000000000 -0.84365696000000001
 5.1000000000000007e-08  1.0000000000000001e-09  1.0000000000000001e-09  0.53681710000000005 -0.0083916370000000004 -0.84365696000000001
 5.3000000000000005e-08  1.0000000000000001e-09  1.0000000000000001e-09  0.53788720000000001 -0.027409869999999999 -0.84257119999999996
 5.5000000000000003e-08  1.0000000000000001e-09  1.0000000000000001e-09  0.54022490000000001 -0.054172604999999999 -0.83977530000000000
 5.7000000000000007e-08  1.0000000000000001e-09  1.0000000000000001e-09  0.54394763999999995 -0.098400230000000005 -0.83332974000000004
 5.9000000000000006e-08  1.0000000000000001e-09  1.0000000000000001e-09  0.54747860000000004 -0.18220860999999999 -0.81674179999999996
 6.1000000000000004e-08  1.0000000000000001e-09  1.0000000000000001e-09  0.0000000000000000  0.0000000000000000  0.0000000000000000
 6.2999999999999995e-08  1.0000000000000001e-09  1.0000000000000001e-09  0.0000000000000000  0.0000000000000000  0.0000000000000000
 6.5000000000000000e-08  1.0000000000000001e-09  1.0000000000000001e-09  0.0000000000000000  0.0000000000000000  0.0000000000000000
 6.7000000000000004e-08  1.0000000000000001e-09  1.0000000000000001e-09  0.0000000000000000  0.0000000000000000  0.0000000000000000
 6.8999999999999996e-08  1.0000000000000001e-09  1.0000000000000001e-09  0.0000000000000000  0.0000000000000000  0.0000000000000000
 7.1000000000000000e-08  1.0000000000000001e-09  1.0000000000000001e-09  0.0000000000000000  0.0000000000000000  0.0000000000000000
 7.3000000000000005e-08  1.0000000000000001e-09  1.0000000000000001e-09  0.0000000000000000  0.0000000000000000  0.0000000000000000
 7.4999999999999997e-08  1.0000000000000001e-09  1.0000000000000001e-09  0.0000000000000000  0.0000000000000000  0.0000000000000000
 7.7000000000000001e-08  1.0000000000000001e-09  1.0000000000000001e-09  0.0000000000000000  0.0000000000000000  0.0000000000000000
 7.9000000000000006e-08  1.0000000000000001e-09  1.0000000000000001e-09  0.0000000000000000  0.0000000000000000  0.0000000000000000
 8.0999999999999997e-08  1.0000000000000001e-09  1.0000000000000001e-09  0.0000000000000000  0.0000000000000000  0.0000000000000000
 8.3000000000000002e-08  1.0000000000000001e-09  1.0000000000000001e-09  0.0000000000000000  0.0000000000000000  0.0000000000000000
 8.5000000000000007e-08  1.0000000000000001e-09  1.0000000000000001e-09  0.0000000000000000  0.0000000000000000  0.0000000000000000
 8.6999999999999998e-08  1.0000000000000001e-09  1.0000000000000001e-09  0.0000000000000000  0.0000000000000000  0.0000000000000000
 8.9000000000000003e-08  1.0000000000000001e-09  1.0000000000000001e-09  0.0000000000000000  0.0000000000000000  0.0000000000000000
 9.1000000000000008e-08  1.0000000000000001e-09  1.0000000000000001e-09  0.0000000000000000  0.0000000000000000  0.0000000000000000
 9.2999999999999999e-08  1.0000000000000001e-09  1.0000000000000001e-09  0.0000000000000000  0.0000000000000000  0.0000000000000000
 9.5000000000000004e-08  1.0000000000000001e-09  1.0000000000000001e-09  0.0000000000000000  0.0000000000000000  0.0000000000000000
 9.7000000000000008e-08  1.0000000000000001e-09  1.0000000000000001e-09  0.0000000000000000  0.0000000000000000  0.0000000000000000
 9.9000000000000000e-08  1.0000000000000001e-09  1.0000000000000001e-09  0.0000000000000000  0.0000000000000000  0.0000000000000000
 1.0000000000000001e-09  3.0000000000000004e-09  1.0000000000000001e-09  0.0000000000000000  0.0000000000000000  0.0000000000000000
 3.0000000000000004e-09  3.0000000000000004e-09  1.0000000000000001e-09  0.0000000000000000  0.0000000000000000  0.0000000000000000
 5.0000000000000001e-09  3.0000000000000004e-09  1.0000000000000001e-09  0.0000000000000000  0.0000000000000000  0.0000000000000000
 7.0000000000000006e-09  3.0000000000000004e-09  1.0000000000000001e-09  0.0000000000000000  0.0000000000000000  0.0000000000000000
 9.0000000000000012e-09  3.0000000000000004e-09  1.0000000000000001e-09  0.0000000000000000  0.0000000000000000  0.0000000000000000
 1.1000000000000001e-08  3.0000000000000004e-09  1.0000000000000001e-09  0.0000000000000000  0.0000000000000000  0.0000000000000000
 1.3000000000000002e-08  3.0000000000000004e-09  1.0000000000000001e-09  0.0000000000000000  0.0000000000000000  0.0000000000000000
 1.5000000000000002e-08  3.0000000000000004e-09  1.0000000000000001e-09  0.0000000000000000  0.0000000000000000  0.0000000000000000
 1.7000000000000000e-08  3.0000000000000004e-09  1.0000000000000001e-09  0.0000000000000000  0.0000000000000000  0.0000000000000000
 1.9000000000000001e-08  3.0000000000000004e-09  1.0000000000000001e-09  0.0000000000000000  0.0000000000000000  0.0000000000000000
 2.0999999999999999e-08  3.0000000000000004e-09  1.0000000000000001e-09  0.0000000000000000  0.0000000000000000  0.0000000000000000
 2.3000000000000001e-08  3.0000000000000004e-09  1.0000000000000001e-09  0.0000000000000000  0.0000000000000000  0.0000000000000000
 2.5000000000000002e-08  3.0000000000000004e-09  1.0000000000000001e-09  0.0000000000000000  0.0000000000000000  0.0000000000000000
 2.7000000000000000e-08  3.0000000000000004e-09  1.0000000000000001e-09  0.0000000000000000  0.0000000000000000  0.0000000000000000
 2.9000000000000002e-08  3.0000000000000004e-09  1.0000000000000001e-09  0.0000000000000000  0.0000000000000000  0.0000000000000000
 3.1000000000000006e-08  3.0000000000000004e-09  1.0000000000000001e-09  0.0000000000000000  0.0000000000000000  0.0000000000000000
 3.3000000000000004e-08  3.0000000000000004e-09  1.0000000000000001e-09  0.52813303000000000  0.23386678000000000 -0.81632227000000002
 3.5000000000000002e-08  3.0000000000000004e-09  1.0000000000000001e-09  0.51795184999999999  0.14711566000000001 -0.84266423999999995
 3.7000000000000007e-08  3.0000000000000004e-09  1.0000000000000001e-09  0.50072956000000002  0.10552744000000000 -0.85914725000000003
 3.9000000000000005e-08  3.0000000000000004e-09  1.0000000000000001e-09  0.47388825000000001  0.091164960000000003 -0.87585329999999995
 4.1000000000000003e-08  3.0000000000000004e-09  1.0000000000000001e-09  0.42545359999999999  0.10099459399999999 -0.89932730000000005
 4.3000000000000008e-08  3.0000000000000004e-09  1.0000000000000001e-09  0.40382984000000000  0.071436470000000002 -0.91204070000000004
 4.5000000000000006e-08  3.0000000000000004e-09  1.0000000000000001e-09  0.39364195000000002  0.044148047000000003 -0.91820323000000004
 4.7000000000000004e-08  3.0000000000000004e-09  1.0000000000000001e-09  0.38875009999999999  0.023525257000000001 -0.92104290000000000
 4.9000000000000009e-08  3.0000000000000004e-09  1.0000000000000001e-09  0.38673987999999998  0.0073503700000000002 -0.92215970000000003
 5.1000000000000007e-08  3.0000000000000004e-09  1.0000000000000001e-09  0.38673987999999998 -0.0073503580000000004 -0.92215959999999997
 5.3000000000000005e-08  3.0000000000000004e-09  1.0000000000000001e-09  0.38875005000000001 -0.023525244000000001 -0.92104286000000002
 5.5000000000000003e-08  3.0000000000000004e-09  1.0000000000000001e-09  0.39364191999999998 -0.044148042999999998 -0.91820323000000004
 5.7000000000000007e-08  3.0000000000000004e-09  1.0000000000000001e-09  0.40382986999999998 -0.071436490000000005 -0.91204076999999995
 5.9000000000000006e-08  3.0000000000000004e-09  1.0000000000000001e-09  0.42545354000000002 -0.10099459000000000 -0.89932719999999999
 6.1000000000000004e-08  3.0000000000000004e-09  1.0000000000000001e-09  0.47388819999999998 -0.091164919999999997 -0.87585329999999995
 6.2999999999999995e-08  3.0000000000000004e-09  1.0000000000000001e-09  0.50072956000000002 -0.10552744999999999 -0.85914729999999995
 6.5000000000000000e-08  3.0000000000000004e-09  1.0000000000000001e-09  0.51795166999999998 -0.14711563000000000 -0.84266430000000003
 6.7000000000000004e-08  3.0000000000000004e-09  1.0000000000000001e-09  0.52813299999999996 -0.23386675000000001 -0.81632220000000000
 6.8999999999999996e-08  3.0000000000000004e-09  1.0000000000000001e-09  0.0000000000000000  0.0000000000000000  0.0000000000000000
 7.1000000000000000e-08  3.0000000000000004e-09  1.0000000000000001e-09  0.0000000000000000  0.0000000000000000  0.0000000000000000
 7.3000000000000005e-08  3.0000000000000004e-09  1.0000000000000001e-09  0.0000000000000000  0.0000000000000000  0.0000000000000000
 7.4999999999999997e-08  3.0000000000000004e-09  1.0000000000000001e-09  0.0000000000000000  0.0000000000000000  0.0000000000000000
 7.7000000000000001e-08  3.0000000000000004e-09  1.0000000000000001e-09  0.0000000000000000  0.0000000000000000  0.0000000000000000
 7.9000000000000006e-08  3.0000000000000004e-09  1.0000000000000001e-09  0.0000000000000000  0.0000000000000000  0.0000000000000000
 8.0999999999999997e-08  3.0000000000000004e-09  1.0000000000000001e-09  0.0000000000000000  0.0000000000000000  0.0000000000000000
 8.3000000000000002e-08  3.0000000000000004e-09  1.0000000000000001e-09  0.0000000000000000  0.0000000000000000  0.0000000000000000
 8.5000000000000007e-08  3.0000000000000004e-09  1.0000000000000001e-09  0.0000000000000000  0.0000000000000000  0.0000000000000000
 8.6999999999999998e-08  3.0000000000000004e-09  1.0000000000000001e-09  0.0000000000000000  0.0000000000000000  0.0000000000000000
 8.9000000000000003e-08  3.0000000000000004e-09  1.0000000000000001e-09  0.0000000000000000  0.0000000000000000  0.0000000000000000
 9.1000000000000008e-08  3.0000000000000004e-09  1.0000000000000001e-09  0.0000000000000000  0.0000000000000000  0.0000000000000000
 9.2999999999999999e-08  3.0000000000000004e-09  1.0000000000000001e-09  0.0000000000000000  0.0000000000000000  0.0000000000000000
 9.5000000000000004e-08  3.0000000000000004e-09  1.0000000000000001e-09  0.0000000000000000  0.0000000000000000  0.0000000000000000
 9.7000000000000008e-08  3.0000000000000004e-09  1.0000000000000001e-09  0.0000000000000000  0.0000000000000000  0.0000000000000000
 9.9000000000000000e-08  3.0000000000000004e-09  1.0000000000000001e-09  0.0000000000000000  0.0000000000000000  0.0000000000000000
 1.0000000000000001e-09  5.0000000000000001e-09  1.0000000000000001e-09  0.0000000000000000  0.0000000000000000  0.0000000000000000
 3.0000000000000004e-09  5.0000000000000001e-09  1.0000000000000001e-09  0.0000000000000000  0.0000000000000000  0.0000000000000000
 5.0000000000000001e-09  5.0000000000000001e-09  1.0000000000000001e-09  0.0000000000000000  0.0000000000000000  0.0000000000000000
 7.0000000000000006e-09  5.0000000000000001e-09  1.0000000000000001e-09  0.0000000000000000  0.0000000000000000  0.0000000000000000
 9.0000000000000012e-09  5.0000000000000001e-09  1.0000000000000001e-09  0.0000000000000000  0.0000000000000000  0.0000000000000000
 1.1000000000000001e-08  5.0000000000000001e-09  1.0000000000000001e-09  0.0000000000000000  0.0000000000000000  0.0000000000000000
 1.3000000000000002e-08  5.0000000000000001e-09  1.0000000000000001e-09  0.0000000000000000  0.0000000000000000  0.0000000000000000
 1.5000000000000002e-08  5.0000000000000001e-09  1.0000000000000001e-09  0.0000000000000000  0.0000000000000000  0.0000000000000000
 1.7000000000000000e-08  5.0000000000000001e-09  1.0000000000000001e-09  0.0000000000000000  0.0000000000000000  0.0000000000000000
 1.9000000000000001e-08  5.0000000000000001e-09  1.0000000000000001e-09  0.0000000000000000  0.0000000000000000  0.0000000000000000
 2.0999999999999999e-08  5.0000000000000001e-09  1.0000000000000001e-09  0.0000000000000000  0.0000000000000000  0.0000000000000000
 2.3000000000000001e-08  5.0000000000000001e-09  1.0000000000000001e-09  0.0000000000000000  0.0000000000000000  0.0000000000000000
 2.5000000000000002e-08  5.0000000000000001e-09  1.0000000000000001e-09  0.0000000000000000  0.0000000000000000  0.0000000000000000
 2.7000000000000000e-08  5.0000000000000001e-09  1.0000000000000001e-09  0.0000000000000000  0.0000000000000000  0.0000000000000000
 2.9000000000000002e-08  5.0000000000000001e-09  1.0000000000000001e-09  0.48965138000000002  0.26791566999999999 -0.82973653000000003
 3.1000000000000006e-08  5.0000000000000001e-09  1.0000000000000001e-09  0.46450629999999998  0.18630031999999999 -0.86575179999999996
 3.3000000000000004e-08  5.0000000000000001e-09  1.0000000000000001e-09  0.41059436999999999  0.16130817000000000 -0.89743640000000002
 3.5000000000000002e-08  5.0000000000000001e-09  1.0000000000000001e-09  0.38090003000000000  0.11907785999999999 -0.91691650000000002
 3.7000000000000007e-08  5.0000000000000001e-09  1.0000000000000001e-09  0.35797092000000003  0.089352063999999995 -0.92944769999999999
 3.9000000000000005e-08  5.0000000000000001e-09  1.0000000000000001e-09  0.33402409999999999  0.073213085999999997 -0.93971689999999997
 4.1000000000000003e-08  5.0000000000000001e-09  1.0000000000000001e-09  0.30642867000000001  0.065175220000000006 -0.94965975999999996
 4.3000000000000008e-08  5.0000000000000001e-09  1.0000000000000001e-09  0.28750396000000000  0.049107734000000000 -0.95651969999999997
 4.5000000000000006e-08  5.0000000000000001e-09  1.0000000000000001e-09  0.27629422999999997  0.032378419999999998 -0.96052760000000004
 4.7000000000000004e-08  5.0000000000000001e-09  1.0000000000000001e-09  0.27023037999999999  0.017983506999999999 -0.96262776999999999
 4.9000000000000009e-08  5.0000000000000001e-09  1.0000000000000001e-09  0.26758882000000001  0.0057289180000000004 -0.96351624000000002
 5.1000000000000007e-08  5.0000000000000001e-09  1.0000000000000001e-09  0.26758880000000002 -0.0057289289999999998 -0.96351620000000004
 5.3000000000000005e-08  5.0000000000000001e-09  1.0000000000000001e-09  0.27023035000000001 -0.017983506000000000 -0.96262776999999999
 5.5000000000000003e-08  5.0000000000000001e-09  1.0000000000000001e-09  0.27629417000000001 -0.032378410000000003 -0.96052766000000001
 5.7000000000000007e-08  5.0000000000000001e-09  1.0000000000000001e-09  0.28750389999999998 -0.049107726999999997 -0.95651969999999997
 5.9000000000000006e-08  5.0000000000000001e-09  1.0000000000000001e-09  0.30642860000000000 -0.065175220000000006 -0.94965990000000000
 6.1000000000000004e-08  5.0000000000000001e-09  1.0000000000000001e-09  0.33402399999999999 -0.073213059999999996 -0.93971689999999997
 6.2999999999999995e-08  5.0000000000000001e-09  1.0000000000000001e-09  0.35797086000000000 -0.089352070000000006 -0.92944777000000001
 6.5000000000000000e-08  5.0000000000000001e-09  1.0000000000000001e-09  0.38089996999999998 -0.11907785000000000 -0.91691643000000000
 6.7000000000000004e-08  5.0000000000000001e-09  1.0000000000000001e-09  0.41059424999999999 -0.16130815000000001 -0.89743629999999996
 6.8999999999999996e-08  5.0000000000000001e-09  1.0000000000000001e-09  0.46450627000000000 -0.18630031000000000 -0.86575179999999996
 7.1000000000000000e-08  5.0000000000000001e-09  1.0000000000000001e-09  0.48965134999999999 -0.26791566999999999 -0.82973664999999996
 7.3000000000000005e-08  5.0000000000000001e-09  1.0000000000000001e-09  0.0000000000000000  0.0000000000000000  0.0000000000000000
 7.4999999999999997e-08  5.0000000000000001e-09  1.0000000000000001e-09  0.0000000000000000  0.0000000000000000  0.0000000000000000
 7.7000000000000001e-08  5.0000000000000001e-09  1.0000000000000001e-09  0.0000000000000000  0.0000000000000000  0.0000000000000000
 7.9000000000000006e-08  5.0000000000000001e-09  1.0000000000000001e-09  0.0000000000000000  0.0000000000000000  0.0000000000000000
 8.0999999999999997e-08  5.0000000000000001e-09  1.0000000000000001e-09  0.0000000000000000  0.0000000000000000  0.0000000000000000
 8.3000000000000002e-08  5.0000000000000001e-09  1.0000000000000001e-09  0.0000000000000000  0.0000000000000000  0.0000000000000000
 8.5000000000000007e-08  5.0000000000000001e-09  1.0000000000000001e-09  0.0000000000000000  0.0000000000000000  0.0000000000000000
 8.6999999999999998e-08  5.0000000000000001e-09  1.0000000000000001e-09  0.0000000000000000  0.0000000000000000  0.0000000000000000
 8.9000000000000003e-08  5.0000000000000001e-09  1.0000000000000001e-09  0.0000000000000000  0.0000000000000000  0.0000000000000000
 9.1000000000000008e-08  5.0000000000000001e-09  1.0000000000000001e-09  0.0000000000000000  0.0000000000000000  0.0000000000000000
 9.2999999999999999e-08  5.0000000000000001e-09  1.0000000000000001e-09  0.0000000000000000  0.0000000000000000  0.0000000000000000
 9.5000000000000004e-08  5.0000000000000001e-09  1.0000000000000001e-09  0.0000000000000000  0.0000000000000000  0.0000000000000000
 9.7000000000000008e-08  5.0000000000000001e-09  1.0000000000000001e-09  0.0000000000000000  0.0000000000000000  0.0000000000000000
 9.9000000000000000e-08  5.0000000000000001e-09  1.0000000000000001e-09  0.0000000000000000  0.0000000000000000  0.0000000000000000
 1.0000000000000001e-09  7.0000000000000006e-09  1.0000000000000001e-09  0.0000000000000000  0.0000000000000000  0.0000000000000000
 3.0000000000000004e-09  7.0000000000000006e-09  1.0000000000000001e-09  0.0000000000000000  0.0000000000000000  0.0000000000000000
 5.0000000000000001e-09  7.0000000000000006e-09  1.0000000000000001e-09  0.0000000000000000  0.0000000000000000  0.0000000000000000
 7.0000000000000006e-09  7.0000000000000006e-09  1.0000000000000001e-09  0.0000000000000000  0.0000000000000000  0.0000000000000000
 9.0000000000000012e-09  7.0000000000000006e-09  1.0000000000000001e-09  0.0000000000000000  0.0000000000000000  0.0000000000000000
 1.1000000000000001e-08  7.0000000000000006e-09  1.0000000000000001e-09  0.0000000000000000  0.0000000000000000  0.0000000000000000
 1.3000000000000002e-08  7.0000000000000006e-09  1.0000000000000001e-09  0.0000000000000000  0.0000000000000000  0.0000000000000000
 1.5000000000000002e-08  7.0000000000000006e-09  1.0000000000000001e-09  0.0000000000000000  0.0000000000000000  0.0000000000000000
 1.7000000000000000e-08  7.0000000000000006e-09  1.0000000000000001e-09  0.0000000000000000  0.0000000000000000  0.0000000000000000
 1.9000000000000001e-08  7.0000000000000006e-09  1.0000000000000001e-09  0.0000000000000000  0.0000000000000000  0.0000000000000000
 2.0999999999999999e-08  7.0000000000000006e-09  1.0000000000000001e-09  0.0000000000000000  0.0000000000000000  0.0000000000000000
 2.3000000000000001e-08  7.0000000000000006e-09  1.0000000000000001e-09  0.0000000000000000  0.0000000000000000  0.0000000000000000
 2.5000000000000002e-08  7.0000000000000006e-09  1.0000000000000001e-09  0.47327229999999998  0.30524465000000001 -0.82634079999999999
 2.7000000000000000e-08  7.0000000000000006e-09  1.0000000000000001e-09  0.44461600000000001  0.21795138999999999 -0.86880029999999997
 2.9000000000000002e-08  7.0000000000000006e-09  1.0000000000000001e-09  0.38068901999999999  0.19061607000000000 -0.90484339999999996
 3.1000000000000006e-08  7.0000000000000006e-09  1.0000000000000001e-09  0.33893108000000000  0.14806486999999999 -0.92908690000000005
 3.3000000000000004e-08  7.0000000000000006e-09  1.0000000000000001e-09  0.30024200000000001  0.11831968000000000 -0.94649629999999996
 3.5000000000000002e-08  7.0000000000000006e-09  1.0000000000000001e-09  0.27127656000000000  0.090178030000000006 -0.95826769999999994
 3.7000000000000007e-08  7.0000000000000006e-09  1.0000000000000001e-09  0.24831102999999999  0.068505479999999994 -0.96625494999999995
 3.9000000000000005e-08  7.0000000000000006e-09  1.0000000000000001e-09  0.22760735000000001  0.053903582999999998 -0.97225989999999995
 4.1000000000000003e-08  7.0000000000000006e-09  1.0000000000000001e-09  0.20810118000000000  0.043573479999999998 -0.97713625000000004
 4.3000000000000008e-08  7.0000000000000006e-09  1.0000000000000001e-09  0.19294517999999999  0.032673510000000003 -0.98066545000000005
 4.5000000000000006e-08  7.0000000000000006e-09  1.0000000000000001e-09  0.18266071000000000  0.021997359000000001 -0.98292990000000002
 4.7000000000000004e-08  7.0000000000000006e-09  1.0000000000000001e-09  0.17649260000000000  0.012459035000000000 -0.98422310000000002
 4.9000000000000009e-08  7.0000000000000006e-09  1.0000000000000001e-09  0.17363120000000001  0.0040111336999999999 -0.98480266000000005
 5.1000000000000007e-08  7.0000000000000006e-09  1.0000000000000001e-09  0.17363118000000000 -0.0040111390000000004 -0.98480259999999997
 5.3000000000000005e-08  7.0000000000000006e-09  1.0000000000000001e-09  0.17649260000000000 -0.012459042500000000 -0.98422319999999996
 5.5000000000000003e-08  7.0000000000000006e-09  1.0000000000000001e-09  0.18266070000000001 -0.021997350999999998 -0.98292999999999997
 5.7000000000000007e-08  7.0000000000000006e-09  1.0000000000000001e-09  0.19294513999999999 -0.032673492999999998 -0.98066545000000005
 5.9000000000000006e-08  7.0000000000000006e-09  1.0000000000000001e-09  0.20810113999999999 -0.043573489999999999 -0.97713629999999996
 6.1000000000000004e-08  7.0000000000000006e-09  1.0000000000000001e-09  0.22760732000000000 -0.053903587000000003 -0.97225994000000004
 6.2999999999999995e-08  7.0000000000000006e-09  1.0000000000000001e-09  0.24831091000000000 -0.068505460000000004 -0.96625494999999995
 6.5000000000000000e-08  7.0000000000000006e-09  1.0000000000000001e-09  0.27127649999999998 -0.090178040000000001 -0.95826774999999997
 6.7000000000000004e-08  7.0000000000000006e-09  1.0000000000000001e-09  0.30024194999999998 -0.11831967000000000 -0.94649629999999996
 6.8999999999999996e-08  7.0000000000000006e-09  1.0000000000000001e-09  0.33893096000000000 -0.14806482000000001 -0.92908700000000000
 7.1000000000000000e-08  7.0000000000000006e-09  1.0000000000000001e-09  0.38068890000000000 -0.19061606000000000 -0.90484332999999995
 7.3000000000000005e-08  7.0000000000000006e-09  1.0000000000000001e-09  0.44461602000000000 -0.21795133000000000 -0.86880033999999995
 7.4999999999999997e-08  7.0000000000000006e-09  1.0000000000000001e-09  0.47327223000000002 -0.30524467999999999 -0.82634090000000004
 7.7000000000000001e-08  7.0000000000000006e-09  1.0000000000000001e-09  0.0000000000000000  0.0000000000000000  0.0000000000000000
 7.9000000000000006e-08  7.0000000000000006e-09  1.0000000000000001e-09  0.0000000000000000  0.0000000000000000  0.0000000000000000
 8.0999999999999997e-08  7.0000000000000006e-09  1.0000000000000001e-09  0.0000000000000000  0.0000000000000000  0.0000000000000000
 8.3000000000000002e-08  7.0000000000000006e-09  1.0000000000000001e-09  0.0000000000000000  0.0000000000000000  0.0000000000000000
 8.5000000000000007e-08  7.0000000000000006e-09  1.0000000000000001e-09  0.0000000000000000  0.0000000000000000  0.0000000000000000
 8.6999999999999998e-08  7.0000000000000006e-09  1.0000000000000001e-09  0.0000000000000000  0.0000000000000000  0.0000000000000000
 8.9000000000000003e-08  7.0000000000000006e-09  1.0000000000000001e-09  0.0000000000000000  0.0000000000000000  0.0000000000000000
 9.1000000000000008e-08  7.0000000000000006e-09  1.0000000000000001e-09  0.0000000000000000  0.0000000000000000  0.0000000000000000
 9.2999999999999999e-08  7.0000000000000006e-09  1.0000000000000001e-09  0.0000000000000000  0.0000000000000000  0.0000000000000000
 9.5000000000000004e-08  7.0000000000000006e-09  1.0000000000000001e-09  0.0000000000000000  0.0000000000000000  0.0000000000000000
 9.7000000000000008e-08  7.0000000000000006e-09  1.0000000000000001e-09  0.0000000000000000  0.0000000000000000  0.0000000000000000
 9.9000000000000000e-08  7.0000000000000006e-09  1.0000000000000001e-09  0.0000000000000000  0.0000000000000000  0.0000000000000000
 1.0000000000000001e-09  9.0000000000000012e-09  1.0000000000000001e-09  0.0000000000000000  0.0000000000000000  0.0000000000000000
 3.0000000000000004e-09  9.0000000000000012e-09  1.0000000000000001e-09  0.0000000000000000  0.0000000000000000  0.0000000000000000
 5.0000000000000001e-09  9.0000000000000012e-09  1.0000000000000001e-09  0.0000000000000000  0.0000000000000000  0.0000000000000000
 7.0000000000000006e-09  9.0000000000000012e-09  1.0000000000000001e-09  0.0000000000000000  0.0000000000000000  0.0000000000000000
 9.0000000000000012e-09  9.0000000000000012e-09  1.0000000000000001e-09  0.0000000000000000  0.0000000000000000  0.0000000000000000
 1.1000000000000001e-08  9.0000000000000012e-09  1.0000000000000001e-09  0.0000000000000000  0.0000000000000000  0.0000000000000000
 1.3000000000000002e-08  9.0000000000000012e-09  1.0000000000000001e-09  0.0000000000000000  0.0000000000000000  0.0000000000000000
 1.5000000000000002e-08  9.0000000000000012e-09  1.0000000000000001e-09  0.0000000000000000  0.0000000000000000  0.0000000000000000
 1.7000000000000000e-08  9.0000000000000012e-09  1.0000000000000001e-09  0.0000000000000000  0.0000000000000000  0.0000000000000000
 1.9000000000000001e-08  9.0000000000000012e-09  1.0000000000000001e-09  0.0000000000000000  0.0000000000000000  0.0000000000000000
 2.0999999999999999e-08  9.0000000000000012e-09  1.0000000000000001e-09  0.0000000000000000  0.0000000000000000  0.0000000000000000
 2.3000000000000001e-08  9.0000000000000012e-09  1.0000000000000001e-09  0.42334965000000002  0.31055822999999999 -0.85107509999999997
 2.5000000000000002e-08  9.0000000000000012e-09  1.0000000000000001e-09  0.36666176000000000  0.23864256000000000 -0.89922690000000005
 2.7000000000000000e-08  9.0000000000000012e-09  1.0000000000000001e-09  0.32315448000000002  0.17975870999999999 -0.92911679999999996
 2.9000000000000002e-08  9.0000000000000012e-09  1.0000000000000001e-09  0.27835317999999998  0.14291033000000000 -0.94978750000000001
 3.1000000000000006e-08  9.0000000000000012e-09  1.0000000000000001e-09  0.24135080000000000  0.11089446000000000 -0.96408110000000002
 3.3000000000000004e-08  9.0000000000000012e-09  1.0000000000000001e-09  0.20976263000000001  0.085619619999999994 -0.97399639999999998
 3.5000000000000002e-08  9.0000000000000012e-09  1.0000000000000001e-09  0.18401632000000001  0.064578559999999993 -0.98079950000000005
 3.7000000000000007e-08  9.0000000000000012e-09  1.0000000000000001e-09  0.16272275000000000  0.048192546000000003 -0.98549419999999999
 3.9000000000000005e-08  9.0000000000000012e-09  1.0000000000000001e-09  0.14426744000000000  0.036246616000000002 -0.98887473000000004