# OOMMF: irregular mesh v1.0
# Segment count: 1
# Begin: Segment
# Begin: Header
# Title: m
# Desc: Total simulation time:  0  s
# meshtype: irregular
# meshunit: m
# pointcount: 2500
# xstepsize: 2.0000000000000001e-09
# ystepsize: 2.0000000000000001e-09
# zstepsize: 2.0000000000000001e-09
# xmin: 0
# ymin: 0
# zmin: 0
# xmax: 1.0000000000000001e-07
# ymax: 1.0000000000000001e-07
# zmax: 2.0000000000000001e-09
# valueunit: 1
# valuemultiplier: 1
# ValueRangeMinMag: 0.99999997297027265
# ValueRangeMaxMag: 1.0000001483784189
# End: Header
# Begin: Data Text
 1.0000000000000001e-09  1.0000000000000001e-09  1.0000000000000001e-09  0.0000000000000000  0.0000000000000000  0.0000000000000000
 3.0000000000000004e-09  1.0000000000000001e-09  1.0000000000000001e-09  0.0000000000000000  0.0000000000000000  0.0000000000000000
 5.0000000000000001e-09  1.0000000000000001e-09  1.0000000000000001e-09  0.0000000000000000  0.0000000000000000  0.0000000000000000
 7.0000000000000006e-09  1.0000000000000001e-09  1.0000000000000001e-09  0.0000000000000000  0.0000000000000000  0.0000000000000000
 9.0000000000000012e-09  1.0000000000000001e-09  1.0000000000000001e-09  0.0000000000000000  0.0000000000000000  0.0000000000000000
 1.1000000000000001e-08  1.0000000000000001e-09  1.0000000000000001e-09  0.0000000000000000  0.0000000000000000  0.0000000000000000
 1.3000000000000002e-08  1.0000000000000001e-09  1.0000000000000001e-09  0.0000000000000000  0.0000000000000000  0.0000000000000000
 1.5000000000000002e-08  1.0000000000000001e-09  1.0000000000000001e-09  0.0000000000000000  0.0000000000000000  0.0000000000000000
 1.7000000000000000e-08  1.0000000000000001e-09  1.0000000000000001e-09  0.0000000000000000  0.0000000000000000  0.0000000000000000
 1.9000000000000001e-08  1.0000000000000001e-09  1.0000000000000001e-09  0.0000000000000000  0.0000000000000000  0.0000000000000000
 2.0999999999999999e-08  1.0000000000000001e-09  1.0000000000000001e-09  0.0000000000000000  0.0000000000000000  0.0000000000000000
 2.3000000000000001e-08  1.0000000000000001e-09  1.0000000000000001e-09  0.0000000000000000  0.0000000000000000  0.0000000000000000
 2.5000000000000002e-08  1.0000000000000001e-09  1.0000000000000001e-09  0.0000000000000000  0.0000000000000000  0.0000000000000000
 2.7000000000000000e-08  1.0000000000000001e-09  1.0000000000000001e-09  0.0000000000000000  0.0000000000000000  0.0000000000000000
 2.9000000000000002e-08  1.0000000000000001e-09  1.0000000000000001e-09  0.0000000000000000  0.0000000000000000  0.0000000000000000
 3.1000000000000006e-08  1.0000000000000001e-09  1.0000000000000001e-09  0.0000000000000000  0.0000000000000000  0.0000000000000000
 3.3000000000000004e-08  1.0000000000000001e-09  1.0000000000000001e-09  0.0000000000000000  0.0000000000000000  0.0000000000000000
 3.5000000000000002e-08  1.0000000000000001e-09  1.0000000000000001e-09  0.0000000000000000  0.0000000000000000  0.0000000000000000
 3.7000000000000007e-08  1.0000000000000001e-09  1.0000000000000001e-09  0.0000000000000000  0.0000000000000000  0.0000000000000000
 3.9000000000000005e-08  1.0000000000000001e-09  1.0000000000000001e-09  0.0000000000000000  0.0000000000000000  0.0000000000000000
 4.1000000000000003e-08  1.0000000000000001e-09  1.0000000000000001e-09  0.54745999999999995 -0.18220713999999999 -0.81675469999999994
 4.3000000000000008e-08  1.0000000000000001e-09  1.0000000000000001e-09  0.54392870000000004 -0.098398219999999995 -0.83334224999999995
 4.5000000000000006e-08  1.0000000000000001e-09  1.0000000000000001e-09  0.54020550000000001 -0.054170914000000001 -0.83978783999999995
 4.7000000000000004e-08  1.0000000000000001e-09  1.0000000000000001e-09  0.53786740000000000 -0.027408829999999999 -0.84258370000000005
 4.9000000000000009e-08  1.0000000000000001e-09  1.0000000000000001e-09  0.53679730000000003 -0.0083912970000000007 -0.84366965000000005
 5.1000000000000007e-08  1.0000000000000001e-09  1.0000000000000001e-09  0.53679717000000005  0.0083912829999999994 -0.84366965000000005
 5.3000000000000005e-08  1.0000000000000001e-09  1.0000000000000001e-09  0.53786754999999997  0.027408818000000001 -0.84258379999999999
 5.5000000000000003e-08  1.0000000000000001e-09  1.0000000000000001e-09  0.54020559999999995  0.054170932999999998 -0.83978783999999995
 5.7000000000000007e-08  1.0000000000000001e-09  1.0000000000000001e-09  0.54392870000000004  0.098398239999999998 -0.83334229999999998
 5.9000000000000006e-08  1.0000000000000001e-09  1.0000000000000001e-09  0.54746010000000001  0.18220713999999999 -0.81675460000000000
 6.1000000000000004e-08  1.0000000000000001e-09  1.0000000000000001e-09  0.0000000000000000  0.0000000000000000  0.0000000000000000
 6.2999999999999995e-08  1.0000000000000001e-09  1.0000000000000001e-09  0.0000000000000000  0.0000000000000000  0.0000000000000000
 6.5000000000000000e-08  1.0000000000000001e-09  1.0000000000000001e-09  0.0000000000000000  0.0000000000000000  0.0000000000000000
 6.7000000000000004e-08  1.0000000000000001e-09  1.0000000000000001e-09  0.0000000000000000  0.0000000000000000  0.0000000000000000
 6.8999999999999996e-08  1.0000000000000001e-09  1.0000000000000001e-09  0.0000000000000000  0.0000000000000000  0.0000000000000000
 7.1000000000000000e-08  1.0000000000000001e-09  1.0000000000000001e-09  0.0000000000000000  0.0000000000000000  0.0000000000000000
 7.3000000000000005e-08  1.0000000000000001e-09  1.0000000000000001e-09  0.0000000000000000  0.0000000000000000  0.0000000000000000
 7.4999999999999997e-08  1.0000000000000001e-09  1.0000000000000001e-09  0.0000000000000000  0.0000000000000000  0.0000000000000000
 7.7000000000000001e-08  1.0000000000000001e-09  1.0000000000000001e-09  0.0000000000000000  0.0000000000000000  0.0000000000000000
 7.9000000000000006e-08  1.0000000000000001e-09  1.0000000000000001e-09  0.0000000000000000  0.0000000000000000  0.0000000000000000
 8.0999999999999997e-08  1.0000000000000001e-09  1.0000000000000001e-09  0.0000000000000000  0.0000000000000000  0.0000000000000000
 8.3000000000000002e-08  1.0000000000000001e-09  1.0000000000000001e-09  0.0000000000000000  0.0000000000000000  0.0000000000000000
 8.5000000000000007e-08  1.0000000000000001e-09  1.0000000000000001e-09  0.0000000000000000  0.0000000000000000  0.0000000000000000
 8.6999999999999998e-08  1.0000000000000001e-09  1.0000000000000001e-09  0.0000000000000000  0.0000000000000000  0.0000000000000000
 8.9000000000000003e-08  1.0000000000000001e-09  1.0000000000000001e-09  0.0000000000000000  0.0000000000000000  0.0000000000000000
 9.1000000000000008e-08  1.0000000000000001e-09  1.0000000000000001e-09  0.0000000000000000  0.0000000000000000  0.0000000000000000
 9.2999999999999999e-08  1.0000000000000001e-09  1.0000000000000001e-09  0.0000000000000000  0.0000000000000000  0.0000000000000000
 9.5000000000000004e-08  1.0000000000000001e-09  1.0000000000000001e-09  0.0000000000000000  0.0000000000000000  0.0000000000000000
 9.7000000000000008e-08  1.0000000000000001e-09  1.0000000000000001e-09  0.0000000000000000  0.0000000000000000  0.0000000000000000
 9.9000000000000000e-08  1.0000000000000001e-09  1.0000000000000001e-09  0.0000000000000000  0.0000000000000000  0.0000000000000000
 1.0000000000000001e-09  3.0000000000000004e-09  1.0000000000000001e-09  0.0000000000000000  0.0000000000000000  0.0000000000000000
 3.0000000000000004e-09  3.0000000000000004e-09  1.0000000000000001e-09  0.0000000000000000  0.0000000000000000  0.0000000000000000
 5.0000000000000001e-09  3.0000000000000004e-09  1.0000000000000001e-09  0.0000000000000000  0.0000000000000000  0.0000000000000000
 7.0000000000000006e-09  3.0000000000000004e-09  1.0000000000000001e-09  0.0000000000000000  0.0000000000000000  0.0000000000000000
 9.0000000000000012e-09  3.0000000000000004e-09  1.0000000000000001e-09  0.0000000000000000  0.0000000000000000  0.0000000000000000
 1.1000000000000001e-08  3.0000000000000004e-09  1.0000000000000001e-09  0.0000000000000000  0.0000000000000000  0.0000000000000000
 1.3000000000000002e-08  3.0000000000000004e-09  1.0000000000000001e-09  0.0000000000000000  0.0000000000000000  0.0000000000000000
 1.5000000000000002e-08  3.0000000000000004e-09  1.0000000000000001e-09  0.0000000000000000  0.0000000000000000  0.0000000000000000
 1.7000000000000000e-08  3.0000000000000004e-09  1.0000000000000001e-09  0.0000000000000000  0.0000000000000000  0.0000000000000000
 1.9000000000000001e-08  3.0000000000000004e-09  1.0000000000000001e-09  0.0000000000000000  0.0000000000000000  0.0000000000000000
 2.0999999999999999e-08  3.0000000000000004e-09  1.0000000000000001e-09  0.0000000000000000  0.0000000000000000  0.0000000000000000
 2.3000000000000001e-08  3.0000000000000004e-09  1.0000000000000001e-09  0.0000000000000000  0.0000000000000000  0.0000000000000000
 2.5000000000000002e-08  3.0000000000000004e-09  1.0000000000000001e-09  0.0000000000000000  0.0000000000000000  0.0000000000000000
 2.7000000000000000e-08  3.0000000000000004e-09  1.0000000000000001e-09  0.0000000000000000  0.0000000000000000  0.0000000000000000
 2.9000000000000002e-08  3.0000000000000004e-09  1.0000000000000001e-09  0.0000000000000000  0.0000000000000000  0.0000000000000000
 3.1000000000000006e-08  3.0000000000000004e-09  1.0000000000000001e-09  0.0000000000000000  0.0000000000000000  0.0000000000000000
 3.3000000000000004e-08  3.0000000000000004e-09  1.0000000000000001e-09  0.52811549999999996 -0.23386212000000001 -0.81633489999999997
 3.5000000000000002e-08  3.0000000000000004e-09  1.0000000000000001e-09  0.51793354999999996 -0.14711039000000001 -0.84267639999999999
 3.7000000000000007e-08  3.0000000000000004e-09  1.0000000000000001e-09  0.50071025000000002 -0.10552225000000000 -0.85915905000000004
 3.9000000000000005e-08  3.0000000000000004e-09  1.0000000000000001e-09  0.47386777000000002 -0.091160290000000005 -0.87586480000000000
 4.1000000000000003e-08  3.0000000000000004e-09  1.0000000000000001e-09  0.42543224000000002 -0.10099118999999999 -0.89933770000000002
 4.3000000000000008e-08  3.0000000000000004e-09  1.0000000000000001e-09  0.40380785000000002 -0.071433709999999997 -0.91205069999999999
 4.5000000000000006e-08  3.0000000000000004e-09  1.0000000000000001e-09  0.39361935999999997 -0.044145919999999998 -0.91821295000000003
 4.7000000000000004e-08  3.0000000000000004e-09  1.0000000000000001e-09  0.38872707000000001 -0.023523998000000001 -0.92105263000000004
 4.9000000000000009e-08  3.0000000000000004e-09  1.0000000000000001e-09  0.38671654000000000 -0.0073499300000000002 -0.92216929999999997
 5.1000000000000007e-08  3.0000000000000004e-09  1.0000000000000001e-09  0.38671660000000002  0.0073499419999999999 -0.92216929999999997
 5.3000000000000005e-08  3.0000000000000004e-09  1.0000000000000001e-09  0.38872707000000001  0.023523941999999999 -0.92105263000000004
 5.5000000000000003e-08  3.0000000000000004e-09  1.0000000000000001e-09  0.39361940000000001  0.044145964000000003 -0.91821299999999995
 5.7000000000000007e-08  3.0000000000000004e-09  1.0000000000000001e-09  0.40380797000000002  0.071433689999999994 -0.91205066000000001
 5.9000000000000006e-08  3.0000000000000004e-09  1.0000000000000001e-09  0.42543226000000001  0.10099116000000000 -0.89933759999999996
 6.1000000000000004e-08  3.0000000000000004e-09  1.0000000000000001e-09  0.47386785999999997  0.091160329999999998 -0.87586474000000003
 6.2999999999999995e-08  3.0000000000000004e-09  1.0000000000000001e-09  0.50071036999999996  0.10552228000000000 -0.85915900000000001
 6.5000000000000000e-08  3.0000000000000004e-09  1.0000000000000001e-09  0.51793367000000001  0.14711036000000000 -0.84267634000000002
 6.7000000000000004e-08  3.0000000000000004e-09  1.0000000000000001e-09  0.52811562999999995  0.23386213000000000 -0.81633480000000003
 6.8999999999999996e-08  3.0000000000000004e-09  1.0000000000000001e-09  0.0000000000000000  0.0000000000000000  0.0000000000000000
 7.1000000000000000e-08  3.0000000000000004e-09  1.0000000000000001e-09  0.0000000000000000  0.0000000000000000  0.0000000000000000
 7.3000000000000005e-08  3.0000000000000004e-09  1.0000000000000001e-09  0.0000000000000000  0.0000000000000000  0.0000000000000000
 7.4999999999999997e-08  3.0000000000000004e-09  1.0000000000000001e-09  0.0000000000000000  0.0000000000000000  0.0000000000000000
 7.7000000000000001e-08  3.0000000000000004e-09  1.0000000000000001e-09  0.0000000000000000  0.0000000000000000  0.0000000000000000
 7.9000000000000006e-08  3.0000000000000004e-09  1.0000000000000001e-09  0.0000000000000000  0.0000000000000000  0.0000000000000000
 8.0999999999999997e-08  3.0000000000000004e-09  1.0000000000000001e-09  0.0000000000000000  0.0000000000000000  0.0000000000000000
 8.3000000000000002e-08  3.0000000000000004e-09  1.0000000000000001e-09  0.0000000000000000  0.0000000000000000  0.0000000000000000
 8.5000000000000007e-08  3.0000000000000004e-09  1.0000000000000001e-09  0.0000000000000000  0.0000000000000000  0.0000000000000000
 8.6999999999999998e-08  3.0000000000000004e-09  1.0000000000000001e-09  0.0000000000000000  0.0000000000000000  0.0000000000000000
 8.9000000000000003e-08  3.0000000000000004e-09  1.0000000000000001e-09  0.0000000000000000  0.0000000000000000  0.0000000000000000
 9.1000000000000008e-08  3.0000000000000004e-09  1.0000000000000001e-09  0.0000000000000000  0.0000000000000000  0.0000000000000000
 9.2999999999999999e-08  3.0000000000000004e-09  1.0000000000000001e-09  0.0000000000000000  0.0000000000000000  0.0000000000000000
 9.5000000000000004e-08  3.0000000000000004e-09  1.0000000000000001e-09  0.0000000000000000  0.0000000000000000  0.0000000000000000
 9.7000000000000008e-08  3.0000000000000004e-09  1.0000000000000001e-09  0.0000000000000000  0.0000000000000000  0.0000000000000000
 9.9000000000000000e-08  3.0000000000000004e-09  1.0000000000000001e-09  0.0000000000000000  0.0000000000000000  0.0000000000000000
 1.0000000000000001e-09  5.0000000000000001e-09  1.0000000000000001e-09  0.0000000000000000  0.0000000000000000  0.0000000000000000
 3.0000000000000004e-09  5.0000000000000001e-09  1.0000000000000001e-09  0.0000000000000000  0.0000000000000000  0.0000000000000000
 5.0000000000000001e-09  5.0000000000000001e-09  1.0000000000000001e-09  0.0000000000000000  0.0000000000000000  0.0000000000000000
 7.0000000000000006e-09  5.0000000000000001e-09  1.0000000000000001e-09  0.0000000000000000  0.0000000000000000  0.0000000000000000
 9.0000000000000012e-09  5.0000000000000001e-09  1.0000000000000001e-09  0.0000000000000000  0.0000000000000000  0.0000000000000000
 1.1000000000000001e-08  5.0000000000000001e-09  1.0000000000000001e-09  0.0000000000000000  0.0000000000000000  0.0000000000000000
 1.3000000000000002e-08  5.0000000000000001e-09  1.0000000000000001e-09  0.0000000000000000  0.0000000000000000  0.0000000000000000
 1.5000000000000002e-08  5.0000000000000001e-09  1.0000000000000001e-09  0.0000000000000000  0.0000000000000000  0.0000000000000000
 1.7000000000000000e-08  5.0000000000000001e-09  1.0000000000000001e-09  0.0000000000000000  0.0000000000000000  0.0000000000000000
 1.9000000000000001e-08  5.0000000000000001e-09  1.0000000000000001e-09  0.0000000000000000  0.0000000000000000  0.0000000000000000
 2.0999999999999999e-08  5.0000000000000001e-09  1.0000000000000001e-09  0.0000000000000000  0.0000000000000000  0.0000000000000000
 2.3000000000000001e-08  5.0000000000000001e-09  1.0000000000000001e-09  0.0000000000000000  0.0000000000000000  0.0000000000000000
 2.5000000000000002e-08  5.0000000000000001e-09  1.0000000000000001e-09  0.0000000000000000  0.0000000000000000  0.0000000000000000
 2.7000000000000000e-08  5.0000000000000001e-09  1.0000000000000001e-09  0.0000000000000000  0.0000000000000000  0.0000000000000000
 2.9000000000000002e-08  5.0000000000000001e-09  1.0000000000000001e-09  0.48963435999999999 -0.26790902000000000 -0.82974879999999995
 3.1000000000000006e-08  5.0000000000000001e-09  1.0000000000000001e-09  0.46448814999999999 -0.18629308000000000 -0.86576299999999995
 3.3000000000000004e-08  5.0000000000000001e-09  1.0000000000000001e-09  0.41057480000000002 -0.16130152000000000 -0.89744650000000004
 3.5000000000000002e-08  5.0000000000000001e-09  1.0000000000000001e-09  0.38087895999999999 -0.11907142400000000 -0.91692596999999998
 3.7000000000000007e-08  5.0000000000000001e-09  1.0000000000000001e-09  0.35794841999999999 -0.089345984000000003 -0.92945699999999998
 3.9000000000000005e-08  5.0000000000000001e-09  1.0000000000000001e-09  0.33400004999999999 -0.073207560000000005 -0.93972593999999998
 4.1000000000000003e-08  5.0000000000000001e-09  1.0000000000000001e-09  0.30640329999999999 -0.065170569999999997 -0.94966819999999996
 4.3000000000000008e-08  5.0000000000000001e-09  1.0000000000000001e-09  0.28747751999999999 -0.049103956999999997 -0.95652780000000004
 4.5000000000000006e-08  5.0000000000000001e-09  1.0000000000000001e-09  0.27626684000000001 -0.032375639999999997 -0.96053560000000004
 4.7000000000000004e-08  5.0000000000000001e-09  1.0000000000000001e-09  0.27020228000000002 -0.017981806999999999 -0.96263575999999995
 4.9000000000000009e-08  5.0000000000000001e-09  1.0000000000000001e-09  0.26756039999999998 -0.0057283817000000001 -0.96352409999999999
 5.1000000000000007e-08  5.0000000000000001e-09  1.0000000000000001e-09  0.26756042000000002  0.0057283131999999997 -0.96352415999999996
 5.3000000000000005e-08  5.0000000000000001e-09  1.0000000000000001e-09  0.27020240000000001  0.017981799999999999 -0.96263569999999998
 5.5000000000000003e-08  5.0000000000000001e-09  1.0000000000000001e-09  0.27626689999999998  0.032375620000000001 -0.96053549999999999
 5.7000000000000007e-08  5.0000000000000001e-09  1.0000000000000001e-09  0.28747760000000000  0.049103923000000001 -0.95652780000000004
 5.9000000000000006e-08  5.0000000000000001e-09  1.0000000000000001e-09  0.30640346000000002  0.065170580000000006 -0.94966819999999996
 6.1000000000000004e-08  5.0000000000000001e-09  1.0000000000000001e-09  0.33400020000000002  0.073207590000000003 -0.93972579999999994
 6.2999999999999995e-08  5.0000000000000001e-09  1.0000000000000001e-09  0.35794850000000000  0.089345990000000000 -0.92945690000000003
 6.5000000000000000e-08  5.0000000000000001e-09  1.0000000000000001e-09  0.38087913000000001  0.11907147000000000 -0.91692596999999998
 6.7000000000000004e-08  5.0000000000000001e-09  1.0000000000000001e-09  0.41057490000000002  0.16130159999999999 -0.89744645000000001
 6.8999999999999996e-08  5.0000000000000001e-09  1.0000000000000001e-09  0.46448833000000000  0.18629314999999999 -0.86576295000000003
 7.1000000000000000e-08  5.0000000000000001e-09  1.0000000000000001e-09  0.48963442000000001  0.26790904999999998 -0.82974862999999999
 7.3000000000000005e-08  5.0000000000000001e-09  1.0000000000000001e-09  0.0000000000000000  0.0000000000000000  0.0000000000000000
 7.4999999999999997e-08  5.0000000000000001e-09  1.0000000000000001e-09  0.0000000000000000  0.0000000000000000  0.0000000000000000
 7.7000000000000001e-08  5.0000000000000001e-09  1.0000000000000001e-09  0.0000000000000000  0.0000000000000000  0.0000000000000000
 7.9000000000000006e-08  5.0000000000000001e-09  1.0000000000000001e-09  0.0000000000000000  0.0000000000000000  0.0000000000000000
 8.0999999999999997e-08  5.0000000000000001e-09  1.0000000000000001e-09  0.0000000000000000  0.0000000000000000  0.0000000000000000
 8.3000000000000002e-08  5.0000000000000001e-09  1.0000000000000001e-09  0.0000000000000000  0.0000000000000000  0.0000000000000000
 8.5000000000000007e-08  5.0000000000000001e-09  1.0000000000000001e-09  0.0000000000000000  0.0000000000000000  0.0000000000000000
 8.6999999999999998e-08  5.0000000000000001e-09  1.0000000000000001e-09  0.0000000000000000  0.0000000000000000  0.0000000000000000
 8.9000000000000003e-08  5.0000000000000001e-09  1.0000000000000001e-09  0.0000000000000000  0.0000000000000000  0.0000000000000000
 9.1000000000000008e-08  5.0000000000000001e-09  1.0000000000000001e-09  0.0000000000000000  0.0000000000000000  0.0000000000000000
 9.2999999999999999e-08  5.0000000000000001e-09  1.0000000000000001e-09  0.0000000000000000  0.0000000000000000  0.0000000000000000
 9.5000000000000004e-08  5.0000000000000001e-09  1.0000000000000001e-09  0.0000000000000000  0.0000000000000000  0.0000000000000000
 9.7000000000000008e-08  5.0000000000000001e-09  1.0000000000000001e-09  0.0000000000000000  0.0000000000000000  0.0000000000000000
 9.9000000000000000e-08  5.0000000000000001e-09  1.0000000000000001e-09  0.0000000000000000  0.0000000000000000  0.0000000000000000
 1.0000000000000001e-09  7.0000000000000006e-09  1.0000000000000001e-09  0.0000000000000000  0.0000000000000000  0.0000000000000000
 3.0000000000000004e-09  7.0000000000000006e-09  1.0000000000000001e-09  0.0000000000000000  0.0000000000000000  0.0000000000000000
 5.0000000000000001e-09  7.0000000000000006e-09  1.0000000000000001e-09  0.0000000000000000  0.0000000000000000  0.0000000000000000
 7.0000000000000006e-09  7.0000000000000006e-09  1.0000000000000001e-09  0.0000000000000000  0.0000000000000000  0.0000000000000000
 9.0000000000000012e-09  7.0000000000000006e-09  1.0000000000000001e-09  0.0000000000000000  0.0000000000000000  0.0000000000000000
 1.1000000000000001e-08  7.0000000000000006e-09  1.0000000000000001e-09  0.0000000000000000  0.0000000000000000  0.0000000000000000
 1.3000000000000002e-08  7.0000000000000006e-09  1.0000000000000001e-09  0.0000000000000000  0.0000000000000000  0.0000000000000000
 1.5000000000000002e-08  7.0000000000000006e-09  1.0000000000000001e-09  0.0000000000000000  0.0000000000000000  0.0000000000000000
 1.7000000000000000e-08  7.0000000000000006e-09  1.0000000000000001e-09  0.0000000000000000  0.0000000000000000  0.0000000000000000
 1.9000000000000001e-08  7.0000000000000006e-09  1.0000000000000001e-09  0.0000000000000000  0.0000000000000000  0.0000000000000000
 2.0999999999999999e-08  7.0000000000000006e-09  1.0000000000000001e-09  0.0000000000000000  0.0000000000000000  0.0000000000000000
 2.3000000000000001e-08  7.0000000000000006e-09  1.0000000000000001e-09  0.0000000000000000  0.0000000000000000  0.0000000000000000
 2.5000000000000002e-08  7.0000000000000006e-09  1.0000000000000001e-09  0.47325620000000002 -0.30523640000000002 -0.82635300000000000
 2.7000000000000000e-08  7.0000000000000006e-09  1.0000000000000001e-09  0.44459875999999998 -0.21794227999999999 -0.86881129999999995
 2.9000000000000002e-08  7.0000000000000006e-09  1.0000000000000001e-09  0.38066991999999999 -0.19060737000000000 -0.90485316999999998
 3.1000000000000006e-08  7.0000000000000006e-09  1.0000000000000001e-09  0.33891030000000000 -0.14805615000000000 -0.92909586000000000
 3.3000000000000004e-08  7.0000000000000006e-09  1.0000000000000001e-09  0.30021920000000002 -0.11831121999999999 -0.94650453000000001
 3.5000000000000002e-08  7.0000000000000006e-09  1.0000000000000001e-09  0.27125159999999998 -0.090169840000000001 -0.95827560000000001
 3.7000000000000007e-08  7.0000000000000006e-09  1.0000000000000001e-09  0.24828368000000001 -0.068497669999999997 -0.96626250000000002
 3.9000000000000005e-08  7.0000000000000006e-09  1.0000000000000001e-09  0.22757781999999999 -0.053896442000000003 -0.97226727000000002
 4.1000000000000003e-08  7.0000000000000006e-09  1.0000000000000001e-09  0.20806946000000001 -0.043567202999999999 -0.97714334999999997
 4.3000000000000008e-08  7.0000000000000006e-09  1.0000000000000001e-09  0.19291154999999999 -0.032668336999999999 -0.98067219999999999
 4.5000000000000006e-08  7.0000000000000006e-09  1.0000000000000001e-09  0.18262558000000001 -0.021993500999999999 -0.98293655999999996
 4.7000000000000004e-08  7.0000000000000006e-09  1.0000000000000001e-09  0.17645638000000000 -0.012456658000000001 -0.98422960000000004
 4.9000000000000009e-08  7.0000000000000006e-09  1.0000000000000001e-09  0.17359440000000001 -0.0040103589999999998 -0.98480909999999999
 5.1000000000000007e-08  7.0000000000000006e-09  1.0000000000000001e-09  0.17359440000000001  0.0040103079999999998 -0.98480909999999999
 5.3000000000000005e-08  7.0000000000000006e-09  1.0000000000000001e-09  0.17645640000000001  0.012456610000000000 -0.98422960000000004
 5.5000000000000003e-08  7.0000000000000006e-09  1.0000000000000001e-09  0.18262568000000001  0.021993446999999999 -0.98293649999999999
 5.7000000000000007e-08  7.0000000000000006e-09  1.0000000000000001e-09  0.19291170999999999  0.032668315000000003 -0.98067223999999997
 5.9000000000000006e-08  7.0000000000000006e-09  1.0000000000000001e-09  0.20806960999999999  0.043567210000000002 -0.97714330000000005
 6.1000000000000004e-08  7.0000000000000006e-09  1.0000000000000001e-09  0.22757795000000000  0.053896416000000003 -0.97226714999999997
 6.2999999999999995e-08  7.0000000000000006e-09  1.0000000000000001e-09  0.24828391999999999  0.068497690000000000 -0.96626250000000002
 6.5000000000000000e-08  7.0000000000000006e-09  1.0000000000000001e-09  0.27125177000000000  0.090169879999999994 -0.95827543999999998
 6.7000000000000004e-08  7.0000000000000006e-09  1.0000000000000001e-09  0.30021942000000001  0.11831128000000000 -0.94650453000000001
 6.8999999999999996e-08  7.0000000000000006e-09  1.0000000000000001e-09  0.33891050000000000  0.14805621999999999 -0.92909589999999997
 7.1000000000000000e-08  7.0000000000000006e-09  1.0000000000000001e-09  0.38067013000000000  0.19060748999999999 -0.90485309999999997
 7.3000000000000005e-08  7.0000000000000006e-09  1.0000000000000001e-09  0.44459890000000002  0.21794239000000001 -0.86881120000000001
 7.4999999999999997e-08  7.0000000000000006e-09  1.0000000000000001e-09  0.47325637999999998  0.30523645999999999 -0.82635294999999998
 7.7000000000000001e-08  7.0000000000000006e-09  1.0000000000000001e-09  0.0000000000000000  0.0000000000000000  0.0000000000000000
 7.9000000000000006e-08  7.0000000000000006e-09  1.0000000000000001e-09  0.0000000000000000  0.0000000000000000  0.0000000000000000
 8.0999999999999997e-08  7.0000000000000006e-09  1.0000000000000001e-09  0.0000000000000000  0.0000000000000000  0.0000000000000000
 8.3000000000000002e-08  7.0000000000000006e-09  1.0000000000000001e-09  0.0000000000000000  0.0000000000000000  0.0000000000000000
 8.5000000000000007e-08  7.0000000000000006e-09  1.0000000000000001e-09  0.0000000000000000  0.0000000000000000  0.0000000000000000
 8.6999999999999998e-08  7.0000000000000006e-09  1.0000000000000001e-09  0.0000000000000000  0.0000000000000000  0.0000000000000000
 8.9000000000000003e-08  7.0000000000000006e-09  1.0000000000000001e-09  0.0000000000000000  0.0000000000000000  0.0000000000000000
 9.1000000000000008e-08  7.0000000000000006e-09  1.0000000000000001e-09  0.0000000000000000  0.0000000000000000  0.0000000000000000
 9.2999999999999999e-08  7.0000000000000006e-09  1.0000000000000001e-09  0.0000000000000000  0.0000000000000000  0.0000000000000000
 9.5000000000000004e-08  7.0000000000000006e-09  1.0000000000000001e-09  0.0000000000000000  0.0000000000000000  0.0000000000000000
 9.7000000000000008e-08  7.0000000000000006e-09  1.0000000000000001e-09  0.0000000000000000  0.0000000000000000  0.0000000000000000
 9.9000000000000000e-08  7.0000000000000006e-09  1.0000000000000001e-09  0.0000000000000000  0.0000000000000000  0.0000000000000000
 1.0000000000000001e-09  9.0000000000000012e-09  1.0000000000000001e-09  0.0000000000000000  0.0000000000000000  0.0000000000000000
 3.0000000000000004e-09  9.0000000000000012e-09  1.0000000000000001e-09  0.0000000000000000  0.0000000000000000  0.0000000000000000
 5.0000000000000001e-09  9.0000000000000012e-09  1.0000000000000001e-09  0.0000000000000000  0.0000000000000000  0.0000000000000000
 7.0000000000000006e-09  9.0000000000000012e-09  1.0000000000000001e-09  0.0000000000000000  0.0000000000000000  0.0000000000000000
 9.0000000000000012e-09  9.0000000000000012e-09  1.0000000000000001e-09  0.0000000000000000  0.0000000000000000  0.0000000000000000
 1.1000000000000001e-08  9.0000000000000012e-09  1.0000000000000001e-09  0.0000000000000000  0.0000000000000000  0.0000000000000000
 1.3000000000000002e-08  9.0000000000000012e-09  1.0000000000000001e-09  0.0000000000000000  0.0000000000000000  0.0000000000000000
 1.5000000000000002e-08  9.0000000000000012e-09  1.0000000000000001e-09  0.0000000000000000  0.0000000000000000  0.0000000000000000
 1.7000000000000000e-08  9.0000000000000012e-09  1.0000000000000001e-09  0.0000000000000000  0.0000000000000000  0.0000000000000000
 1.9000000000000001e-08  9.0000000000000012e-09  1.0000000000000001e-09  0.0000000000000000  0.0000000000000000  0.0000000000000000
 2.0999999999999999e-08  9.0000000000000012e-09  1.0000000000000001e-09  0.0000000000000000  0.0000000000000000  0.0000000000000000
 2.3000000000000001e-08  9.0000000000000012e-09  1.0000000000000001e-09  0.42333340000000003 -0.31054850000000001 -0.85108673999999995
 2.5000000000000002e-08  9.0000000000000012e-09  1.0000000000000001e-09  0.36664390000000002 -0.23863234999999999 -0.89923686000000003
 2.7000000000000000e-08  9.0000000000000012e-09  1.0000000000000001e-09  0.32313475000000003 -0.17974809000000000 -0.92912580000000000
 2.9000000000000002e-08  9.0000000000000012e-09  1.0000000000000001e-09  0.27833116000000002 -0.14289947000000000 -0.94979553999999999
 3.1000000000000006e-08  9.0000000000000012e-09  1.0000000000000001e-09  0.24132598999999999 -0.11088347000000000 -0.96408850000000001
 3.3000000000000004e-08  9.0000000000000012e-09  1.0000000000000001e-09  0.20973474000000000 -0.085608534999999999 -0.97400339999999996
 3.5000000000000002e-08  9.0000000000000012e-09  1.0000000000000001e-09  0.18398503999999999 -0.064567600000000003 -0.98080610000000001
 3.7000000000000007e-08  9.0000000000000012e-09  1.0000000000000001e-09  0.16268787000000001 -0.048181947000000003 -0.98550044999999997
 3.9000000000000005e-08  9.0000000000000012e-09  1.0000000000000001e-09  0.14422894000000000 -0.036236733000000000 -0.98888069999999995