# OOMMF: irregular mesh v1.0
# Segment count: 1
# Begin: Segment
# Begin: Header
# Title: m
# Desc: Total simulation time:  0  s
# meshtype: irregular
# meshunit: m
# pointcount: 100
# xstepsize: 1.0000000000000001e-09
# ystepsize: 1.0000000000000001e-09
# zstepsize: 1.0000000000000001e-09
# xmin: 0
# ymin: 0
# zmin: 0
# xmax: 1.0000000000000001e-07
# ymax: 1.0000000000000001e-09
# zmax: 1.0000000000000001e-09
# valueunit: 1
# valuemultiplier: 1
# ValueRangeMinMag: 0.9999999803418278
# ValueRangeMaxMag: 1.0000001136830472
# End: Header
# Begin: Data Text
 5.0000000000000003e-10  5.0000000000000003e-10  5.0000000000000003e-10 -2.2009332999999999e-08  0.43214026000000000  0.90180640000000001
 1.5000000000000002e-09  5.0000000000000003e-10  5.0000000000000003e-10 -2.1296220000000002e-08  0.34684989999999999  0.93792063000000003
 2.5000000000000001e-09  5.0000000000000003e-10  5.0000000000000003e-10 -1.7825458000000000e-08  0.27646577000000000  0.96102387000000000
 3.5000000000000003e-09  5.0000000000000003e-10  5.0000000000000003e-10 -2.0275435000000001e-08  0.21938674000000000  0.97563800000000001
 4.5000000000000006e-09  5.0000000000000003e-10  5.0000000000000003e-10 -1.2810847500000001e-08  0.17360112000000000  0.98481613000000001
 5.5000000000000004e-09  5.0000000000000003e-10  5.0000000000000003e-10 -7.8112429999999993e-09  0.13712525000000000  0.99055373999999996
 6.5000000000000011e-09  5.0000000000000003e-10  5.0000000000000003e-10 -1.3044458000000001e-09  0.10819091000000000  0.99413012999999995
 7.5000000000000010e-09  5.0000000000000003e-10  5.0000000000000003e-10  4.6155505999999996e-09  0.085300680000000004  0.99635530000000005
 8.5000000000000000e-09  5.0000000000000003e-10  5.0000000000000003e-10  4.0750210000000002e-09  0.067222749999999998  0.99773805999999998
 9.5000000000000007e-09  5.0000000000000003e-10  5.0000000000000003e-10 -7.6522529999999992e-09  0.052960698000000000  0.99859666999999996
 1.0500000000000000e-08  5.0000000000000003e-10  5.0000000000000003e-10 -4.9371062999999998e-09  0.041716700000000002  0.99912950000000000
 1.1500000000000000e-08  5.0000000000000003e-10  5.0000000000000003e-10  3.0231390000000001e-09  0.032855924000000002  0.99946016000000004
 1.2500000000000001e-08  5.0000000000000003e-10  5.0000000000000003e-10  2.3282085000000001e-09  0.025875156999999999  0.99966526000000000
 1.3500000000000000e-08  5.0000000000000003e-10  5.0000000000000003e-10  3.7586019999999996e-09  0.020376476000000001  0.99979245999999999
 1.4500000000000001e-08  5.0000000000000003e-10  5.0000000000000003e-10  2.7921305000000001e-09  0.016045733999999999  0.99987130000000002
 1.5500000000000003e-08  5.0000000000000003e-10  5.0000000000000003e-10 -2.8839380000000001e-09  0.012635120999999999  0.99992020000000004
 1.6500000000000002e-08  5.0000000000000003e-10  5.0000000000000003e-10  2.1736601000000002e-09  0.0099492699999999996  0.99995060000000002
 1.7500000000000001e-08  5.0000000000000003e-10  5.0000000000000003e-10 -7.6542290000000005e-09  0.0078342250000000002  0.99996936000000003
 1.8500000000000004e-08  5.0000000000000003e-10  5.0000000000000003e-10 -1.5072605999999999e-08  0.0061687375000000003  0.99998100000000001
 1.9500000000000003e-08  5.0000000000000003e-10  5.0000000000000003e-10 -1.5866695000000001e-08  0.0048572705000000001  0.99998819999999999
 2.0500000000000002e-08  5.0000000000000003e-10  5.0000000000000003e-10 -8.3530470000000005e-09  0.0038245672000000001  0.99999280000000002
 2.1500000000000004e-08  5.0000000000000003e-10  5.0000000000000003e-10 -7.1867005999999998e-09  0.0030113938000000001  0.99999547000000000
 2.2500000000000003e-08  5.0000000000000003e-10  5.0000000000000003e-10  3.2380292000000000e-09  0.0023710967999999999  0.99999720000000003
 2.3500000000000002e-08  5.0000000000000003e-10  5.0000000000000003e-10  1.1406735999999999e-08  0.0018669142000000000  0.99999830000000001
 2.4500000000000004e-08  5.0000000000000003e-10  5.0000000000000003e-10  2.4982644999999999e-08  0.0014699100000000001  0.99999899999999997
 2.5500000000000003e-08  5.0000000000000003e-10  5.0000000000000003e-10  2.1585443000000000e-08  0.0011573016999999999  0.99999934000000001
 2.6500000000000002e-08  5.0000000000000003e-10  5.0000000000000003e-10 -1.4215642999999999e-09  0.00091115605999999997  0.99999959999999999
 2.7500000000000001e-08  5.0000000000000003e-10  5.0000000000000003e-10  2.2238857000000001e-10  0.00071733370000000003  0.99999976000000002
 2.8500000000000004e-08  5.0000000000000003e-10  5.0000000000000003e-10 -1.1696781000000000e-08  0.00056471340000000003  0.99999994000000003
 2.9500000000000003e-08  5.0000000000000003e-10  5.0000000000000003e-10 -2.5293998000000001e-08  0.00044453709999999998  0.99999994000000003
 3.0500000000000002e-08  5.0000000000000003e-10  5.0000000000000003e-10 -3.5967396000000001e-08  0.00034993500000000000  0.99999994000000003
 3.1499999999999998e-08  5.0000000000000003e-10  5.0000000000000003e-10 -4.5762718000000000e-08  0.00027542695000000000  1.0000000000000000
 3.2500000000000000e-08  5.0000000000000003e-10  5.0000000000000003e-10 -5.3449269999999998e-08  0.00021677021999999999  1.0000000000000000
 3.3500000000000002e-08  5.0000000000000003e-10  5.0000000000000003e-10 -5.8545079999999998e-08  0.00017058001000000000  1.0000000000000000
 3.4499999999999998e-08  5.0000000000000003e-10  5.0000000000000003e-10 -6.3823019999999995e-08  0.00013420785999999999  1.0000000000000000
 3.5500000000000000e-08  5.0000000000000003e-10  5.0000000000000003e-10 -6.0265280000000001e-08  0.00010556113000000000  1.0000000000000000
 3.6500000000000003e-08  5.0000000000000003e-10  5.0000000000000003e-10 -6.8694255999999995e-08  8.3008709999999998e-05  1.0000000000000000
 3.7499999999999998e-08  5.0000000000000003e-10  5.0000000000000003e-10 -6.6030169999999998e-08  6.5234649999999997e-05  1.0000000000000000
 3.8500000000000001e-08  5.0000000000000003e-10  5.0000000000000003e-10 -6.7470090000000004e-08  5.1230853999999999e-05  1.0000000000000000
 3.9500000000000003e-08  5.0000000000000003e-10  5.0000000000000003e-10 -6.8018630000000003e-08  4.0192062000000000e-05  1.0000000000000000
 4.0499999999999999e-08  5.0000000000000003e-10  5.0000000000000003e-10 -6.7763410000000001e-08  3.1482322999999998e-05  1.0000000000000000
 4.1500000000000001e-08  5.0000000000000003e-10  5.0000000000000003e-10 -5.8033250000000001e-08  2.4587776000000000e-05  1.0000000000000000
 4.2500000000000003e-08  5.0000000000000003e-10  5.0000000000000003e-10 -6.0953190000000004e-08  1.9130164000000000e-05  1.0000000000000000
 4.3499999999999999e-08  5.0000000000000003e-10  5.0000000000000003e-10 -5.8549729999999998e-08  1.4774218500000001e-05  1.0000000000000000
 4.4500000000000001e-08  5.0000000000000003e-10  5.0000000000000003e-10 -6.1741986000000000e-08  1.1283965999999999e-05  1.0000000000000000
 4.5500000000000004e-08  5.0000000000000003e-10  5.0000000000000003e-10 -6.3551760000000002e-08  8.4548219999999993e-06  1.0000000000000000
 4.6499999999999999e-08  5.0000000000000003e-10  5.0000000000000003e-10 -6.5637440000000002e-08  6.1031838000000000e-06  1.0000000000000000
 4.7500000000000002e-08  5.0000000000000003e-10  5.0000000000000003e-10 -6.2215803999999996e-08  4.1279685999999997e-06  1.0000000000000000
 4.8500000000000004e-08  5.0000000000000003e-10  5.0000000000000003e-10 -6.4721810000000001e-08  2.3819837000000000e-06  1.0000000000000000
 4.9500000000000000e-08  5.0000000000000003e-10  5.0000000000000003e-10 -6.1769085999999996e-08  7.7224376999999995e-07  1.0000000000000000
 5.0500000000000002e-08  5.0000000000000003e-10  5.0000000000000003e-10 -7.2021145000000003e-08 -7.7972420000000004e-07  1.0000000000000000
 5.1499999999999998e-08  5.0000000000000003e-10  5.0000000000000003e-10 -7.0345300000000002e-08 -2.3775503000000000e-06  1.0000000000000000
 5.2500000000000000e-08  5.0000000000000003e-10  5.0000000000000003e-10 -7.5483549999999998e-08 -4.1272720000000004e-06  1.0000000000000000
 5.3500000000000003e-08  5.0000000000000003e-10  5.0000000000000003e-10 -7.0063269999999997e-08 -6.1033147000000000e-06  1.0000000000000000
 5.4499999999999998e-08  5.0000000000000003e-10  5.0000000000000003e-10 -7.0635039999999996e-08 -8.4555640000000007e-06  1.0000000000000000
 5.5500000000000001e-08  5.0000000000000003e-10  5.0000000000000003e-10 -7.1570210000000006e-08 -1.1277525999999999e-05  1.0000000000000000
 5.6500000000000003e-08  5.0000000000000003e-10  5.0000000000000003e-10 -6.9493039999999998e-08 -1.4782094000000001e-05  1.0000000000000000
 5.7499999999999999e-08  5.0000000000000003e-10  5.0000000000000003e-10 -6.5031933999999995e-08 -1.9122865000000000e-05  1.0000000000000000
 5.8500000000000001e-08  5.0000000000000003e-10  5.0000000000000003e-10 -5.9156189999999998e-08 -2.4585723000000000e-05  1.0000000000000000
 5.9500000000000003e-08  5.0000000000000003e-10  5.0000000000000003e-10 -5.9449953000000001e-08 -3.1480584000000001e-05  1.0000000000000000
 6.0500000000000006e-08  5.0000000000000003e-10  5.0000000000000003e-10 -5.6778024000000002e-08 -4.0189472000000002e-05  1.0000000000000000
 6.1500000000000001e-08  5.0000000000000003e-10  5.0000000000000003e-10 -5.6857143000000000e-08 -5.1226059999999998e-05  1.0000000000000000
 6.2499999999999997e-08  5.0000000000000003e-10  5.0000000000000003e-10 -5.3604825000000003e-08 -6.5233326000000002e-05  1.0000000000000000
 6.3500000000000006e-08  5.0000000000000003e-10  5.0000000000000003e-10 -5.4650510000000000e-08 -8.3005609999999998e-05  1.0000000000000000
 6.4500000000000002e-08  5.0000000000000003e-10  5.0000000000000003e-10 -5.3987820000000002e-08 -0.00010556406000000000  1.0000000000000000
 6.5499999999999998e-08  5.0000000000000003e-10  5.0000000000000003e-10 -5.5877566999999997e-08 -0.00013420083000000000  1.0000000000000000
 6.6500000000000007e-08  5.0000000000000003e-10  5.0000000000000003e-10 -4.6908123999999999e-08 -0.00017058232000000001  1.0000000000000000
 6.7500000000000002e-08  5.0000000000000003e-10  5.0000000000000003e-10 -4.8608157000000001e-08 -0.00021676180000000000  1.0000000000000000
 6.8499999999999998e-08  5.0000000000000003e-10  5.0000000000000003e-10 -3.9020509999999998e-08 -0.00027543069999999998  1.0000000000000000
 6.9500000000000007e-08  5.0000000000000003e-10  5.0000000000000003e-10 -3.4137886999999998e-08 -0.00034992824999999998  1.0000000000000000
 7.0500000000000003e-08  5.0000000000000003e-10  5.0000000000000003e-10 -2.9669783000000001e-08 -0.00044455040000000002  0.99999994000000003
 7.1499999999999998e-08  5.0000000000000003e-10  5.0000000000000003e-10 -2.7969884000000001e-08 -0.00056472019999999996  0.99999994000000003
 7.2500000000000007e-08  5.0000000000000003e-10  5.0000000000000003e-10 -2.5783275999999999e-08 -0.00071734489999999995  0.99999976000000002
 7.3500000000000003e-08  5.0000000000000003e-10  5.0000000000000003e-10 -1.0998442000000001e-08 -0.00091115789999999999  0.99999963999999997
 7.4499999999999999e-08  5.0000000000000003e-10  5.0000000000000003e-10 -1.1947700999999999e-08 -0.0011573236000000000  0.99999934000000001
 7.5500000000000008e-08  5.0000000000000003e-10  5.0000000000000003e-10 -1.7200485000000001e-08 -0.0014699260000000001  0.99999890000000002
 7.6500000000000003e-08  5.0000000000000003e-10  5.0000000000000003e-10 -1.1214748999999999e-08 -0.0018669196999999999  0.99999830000000001
 7.7499999999999999e-08  5.0000000000000003e-10  5.0000000000000003e-10 -8.6259640000000007e-09 -0.0023711110000000000  0.99999726000000000
 7.8500000000000008e-08  5.0000000000000003e-10  5.0000000000000003e-10 -1.7348453000000000e-08 -0.0030114143000000001  0.99999547000000000
 7.9500000000000004e-08  5.0000000000000003e-10  5.0000000000000003e-10 -1.6528924000000001e-08 -0.0038245732000000000  0.99999269999999996
 8.0500000000000000e-08  5.0000000000000003e-10  5.0000000000000003e-10 -2.9608331999999999e-08 -0.0048572659999999998  0.99998819999999999
 8.1500000000000008e-08  5.0000000000000003e-10  5.0000000000000003e-10 -2.7953487999999999e-08 -0.0061687356999999996  0.99998100000000001
 8.2500000000000004e-08  5.0000000000000003e-10  5.0000000000000003e-10 -3.4520557000000003e-08 -0.0078342240000000007  0.99996929999999995
 8.3500000000000000e-08  5.0000000000000003e-10  5.0000000000000003e-10 -3.8405395999999999e-08 -0.0099492550000000006  0.99995049999999996
 8.4500000000000009e-08  5.0000000000000003e-10  5.0000000000000003e-10 -3.5580165000000001e-08 -0.012635129500000000  0.99992024999999995
 8.5500000000000005e-08  5.0000000000000003e-10  5.0000000000000003e-10 -2.8669949999999999e-08 -0.016045750000000001  0.99987124999999999
 8.6500000000000000e-08  5.0000000000000003e-10  5.0000000000000003e-10 -2.1480723000000000e-08 -0.020376477000000000  0.99979240000000003
 8.7500000000000009e-08  5.0000000000000003e-10  5.0000000000000003e-10 -8.8758010000000006e-09 -0.025875155000000000  0.99966526000000000
 8.8500000000000005e-08  5.0000000000000003e-10  5.0000000000000003e-10 -7.1828702999999997e-09 -0.032855924000000002  0.99946016000000004
 8.9500000000000001e-08  5.0000000000000003e-10  5.0000000000000003e-10 -2.5301583000000000e-08 -0.041716719999999999  0.99912953000000004
 9.0500000000000010e-08  5.0000000000000003e-10  5.0000000000000003e-10 -1.8917899999999999e-08 -0.052960715999999998  0.99859659999999995
 9.1500000000000005e-08  5.0000000000000003e-10  5.0000000000000003e-10 -1.4976598000000000e-08 -0.067222770000000001  0.99773800000000001
 9.2500000000000001e-08  5.0000000000000003e-10  5.0000000000000003e-10 -1.8298920999999999e-08 -0.085300710000000002  0.99635534999999997
 9.3500000000000010e-08  5.0000000000000003e-10  5.0000000000000003e-10  5.4377849999999997e-09 -0.10819095400000001  0.99413012999999995
 9.4500000000000006e-08  5.0000000000000003e-10  5.0000000000000003e-10  9.5690989999999997e-09 -0.13712531000000000  0.99055369999999998
 9.5500000000000002e-08  5.0000000000000003e-10  5.0000000000000003e-10  1.2030298500000000e-08 -0.17360117000000000  0.98481609999999997
 9.6500000000000010e-08  5.0000000000000003e-10  5.0000000000000003e-10  1.3280114000000000e-08 -0.21938679999999999  0.97563800000000001
 9.7500000000000006e-08  5.0000000000000003e-10  5.0000000000000003e-10  9.9088649999999996e-09 -0.27646577000000000  0.96102379999999998
 9.8500000000000002e-08  5.0000000000000003e-10  5.0000000000000003e-10  2.3395072999999999e-08 -0.34684989999999999  0.93792074999999997
 9.9499999999999998e-08  5.0000000000000003e-10  5.0000000000000003e-10  1.0900852000000000e-08 -0.43214026000000000  0.90180653000000000
# End: Data Text
# End: Segment
