# OOMMF: irregular mesh v1.0
# Segment count: 1
# Begin: Segment
# Begin: Header
# Title: m
# Desc: Total simulation time:  0  s
# meshtype: irregular
# meshunit: m
# pointcount: 100
# xstepsize: 1.0000000000000001e-09
# ystepsize: 1.0000000000000001e-09
# zstepsize: 1.0000000000000001e-09
# xmin: 0
# ymin: 0
# zmin: 0
# xmax: 1.0000000000000001e-07
# ymax: 1.0000000000000001e-09
# zmax: 1.0000000000000001e-09
# valueunit: 1
# valuemultiplier: 1
# ValueRangeMinMag: 0.99999995951350829
# ValueRangeMaxMag: 1.0000000988624276
# End: Header
# Begin: Data Text
 5.0000000000000003e-10  5.0000000000000003e-10  5.0000000000000003e-10 -0.43214037999999999 -7.2934859999999998e-09  0.90180640000000001
 1.5000000000000002e-09  5.0000000000000003e-10  5.0000000000000003e-10 -0.34684999999999999 -6.5871009999999996e-09  0.93792063000000003
 2.5000000000000001e-09  5.0000000000000003e-10  5.0000000000000003e-10 -0.27646591999999998 -4.4661343999999999e-10  0.96102374999999995
 3.5000000000000003e-09  5.0000000000000003e-10  5.0000000000000003e-10 -0.21938694000000000 -1.2274754000000000e-08  0.97563803000000004
 4.5000000000000006e-09  5.0000000000000003e-10  5.0000000000000003e-10 -0.17360127000000000 -2.1248812000000002e-09  0.98481600000000002
 5.5000000000000004e-09  5.0000000000000003e-10  5.0000000000000003e-10 -0.13712540000000001 -3.8451930000000002e-09  0.99055373999999996
 6.5000000000000011e-09  5.0000000000000003e-10  5.0000000000000003e-10 -0.10819102000000000 -1.3849045000000000e-08  0.99413012999999995
 7.5000000000000010e-09  5.0000000000000003e-10  5.0000000000000003e-10 -0.085300780000000007 -7.1013754999999999e-09  0.99635523999999998
 8.5000000000000000e-09  5.0000000000000003e-10  5.0000000000000003e-10 -0.067222850000000001  5.7119264999999999e-09  0.99773800000000001
 9.5000000000000007e-09  5.0000000000000003e-10  5.0000000000000003e-10 -0.052960787000000002  1.1454895000000000e-09  0.99859659999999995
 1.0500000000000000e-08  5.0000000000000003e-10  5.0000000000000003e-10 -0.041716795000000001  8.7497645000000000e-09  0.99912950000000000
 1.1500000000000000e-08  5.0000000000000003e-10  5.0000000000000003e-10 -0.032856009999999998 -1.6916898999999999e-09  0.99946016000000004
 1.2500000000000001e-08  5.0000000000000003e-10  5.0000000000000003e-10 -0.025875235000000000 -1.1949999000000001e-09  0.99966520000000003
 1.3500000000000000e-08  5.0000000000000003e-10  5.0000000000000003e-10 -0.020376561000000001 -1.0721769999999999e-08  0.99979240000000003
 1.4500000000000001e-08  5.0000000000000003e-10  5.0000000000000003e-10 -0.016045826999999999 -1.8691467999999999e-08  0.99987124999999999
 1.5500000000000003e-08  5.0000000000000003e-10  5.0000000000000003e-10 -0.012635220000000001 -2.0735301000000000e-08  0.99992020000000004
 1.6500000000000002e-08  5.0000000000000003e-10  5.0000000000000003e-10 -0.0099493610000000003 -2.3150246000000001e-08  0.99995049999999996
 1.7500000000000001e-08  5.0000000000000003e-10  5.0000000000000003e-10 -0.0078343270000000003 -1.0708648000000000e-08  0.99996929999999995
 1.8500000000000004e-08  5.0000000000000003e-10  5.0000000000000003e-10 -0.0061688498000000000 -7.7865480000000004e-09  0.99998100000000001
 1.9500000000000003e-08  5.0000000000000003e-10  5.0000000000000003e-10 -0.0048573760000000001 -1.3123635000000000e-08  0.99998819999999999
 2.0500000000000002e-08  5.0000000000000003e-10  5.0000000000000003e-10 -0.0038246859999999999 -3.8529695000000000e-09  0.99999269999999996
 2.1500000000000004e-08  5.0000000000000003e-10  5.0000000000000003e-10 -0.0030115123000000001 -1.4940165000000000e-08  0.99999547000000000
 2.2500000000000003e-08  5.0000000000000003e-10  5.0000000000000003e-10 -0.0023712112999999999 -5.1671059999999999e-09  0.99999726000000000
 2.3500000000000002e-08  5.0000000000000003e-10  5.0000000000000003e-10 -0.0018670005999999999 -1.7105176000000000e-08  0.99999830000000001
 2.4500000000000004e-08  5.0000000000000003e-10  5.0000000000000003e-10 -0.0014700028000000000 -1.9193898000000000e-08  0.99999890000000002
 2.5500000000000003e-08  5.0000000000000003e-10  5.0000000000000003e-10 -0.0011574046999999999 -3.9924290000000000e-08  0.99999939999999998
 2.6500000000000002e-08  5.0000000000000003e-10  5.0000000000000003e-10 -0.00091125193000000005 -4.6343447999999997e-08  0.99999959999999999
 2.7500000000000001e-08  5.0000000000000003e-10  5.0000000000000003e-10 -0.00071742750000000004 -5.1606740000000003e-08  0.99999976000000002
 2.8500000000000004e-08  5.0000000000000003e-10  5.0000000000000003e-10 -0.00056482473000000002 -5.0667686999999997e-08  0.99999979999999999
 2.9500000000000003e-08  5.0000000000000003e-10  5.0000000000000003e-10 -0.00044466193999999999 -5.5136530000000002e-08  1.0000000000000000
 3.0500000000000002e-08  5.0000000000000003e-10  5.0000000000000003e-10 -0.00035002382000000001 -6.2792699999999996e-08  1.0000000000000000
 3.1499999999999998e-08  5.0000000000000003e-10  5.0000000000000003e-10 -0.00027551833999999998 -5.7508620000000000e-08  1.0000000000000000
 3.2500000000000000e-08  5.0000000000000003e-10  5.0000000000000003e-10 -0.00021685426000000001 -6.3586775000000003e-08  1.0000000000000000
 3.3500000000000002e-08  5.0000000000000003e-10  5.0000000000000003e-10 -0.00017066974999999999 -5.7330920000000000e-08  1.0000000000000000
 3.4499999999999998e-08  5.0000000000000003e-10  5.0000000000000003e-10 -0.00013428777000000001 -5.6854159999999999e-08  1.0000000000000000
 3.5500000000000000e-08  5.0000000000000003e-10  5.0000000000000003e-10 -0.00010564720000000000 -6.3458684999999995e-08  1.0000000000000000
 3.6500000000000003e-08  5.0000000000000003e-10  5.0000000000000003e-10 -8.3077020000000006e-05 -6.4106649999999994e-08  1.0000000000000000
 3.7499999999999998e-08  5.0000000000000003e-10  5.0000000000000003e-10 -6.5309140000000004e-05 -7.0178664999999998e-08  1.0000000000000000
 3.8500000000000001e-08  5.0000000000000003e-10  5.0000000000000003e-10 -5.1295952000000000e-05 -7.0518054999999998e-08  1.0000000000000000
 3.9500000000000003e-08  5.0000000000000003e-10  5.0000000000000003e-10 -4.0251267000000002e-05 -7.6401649999999999e-08  1.0000000000000000
 4.0499999999999999e-08  5.0000000000000003e-10  5.0000000000000003e-10 -3.1534190000000000e-05 -7.5384210000000003e-08  1.0000000000000000
 4.1500000000000001e-08  5.0000000000000003e-10  5.0000000000000003e-10 -2.4640148999999999e-05 -7.7030980000000004e-08  1.0000000000000000
 4.2500000000000003e-08  5.0000000000000003e-10  5.0000000000000003e-10 -1.9168580000000000e-05 -7.3035390000000004e-08  1.0000000000000000
 4.3499999999999999e-08  5.0000000000000003e-10  5.0000000000000003e-10 -1.4816643000000001e-05 -7.0017490000000002e-08  1.0000000000000000
 4.4500000000000001e-08  5.0000000000000003e-10  5.0000000000000003e-10 -1.1315087000000001e-05 -6.0941204000000002e-08  1.0000000000000000
 4.5500000000000004e-08  5.0000000000000003e-10  5.0000000000000003e-10 -8.4770149999999997e-06 -6.6878809999999999e-08  1.0000000000000000
 4.6499999999999999e-08  5.0000000000000003e-10  5.0000000000000003e-10 -6.1306737000000003e-06 -6.0948009999999994e-08  1.0000000000000000
 4.7500000000000002e-08  5.0000000000000003e-10  5.0000000000000003e-10 -4.1400876000000003e-06 -6.8281985000000001e-08  1.0000000000000000
 4.8500000000000004e-08  5.0000000000000003e-10  5.0000000000000003e-10 -2.3922318999999998e-06 -7.0603289999999993e-08  1.0000000000000000
 4.9500000000000000e-08  5.0000000000000003e-10  5.0000000000000003e-10 -7.7547750000000004e-07 -6.7845090000000005e-08  1.0000000000000000
 5.0500000000000002e-08  5.0000000000000003e-10  5.0000000000000003e-10  7.7823990000000002e-07 -6.7996320000000005e-08  1.0000000000000000
 5.1499999999999998e-08  5.0000000000000003e-10  5.0000000000000003e-10  2.3875711999999999e-06 -6.7494206000000002e-08  1.0000000000000000
 5.2500000000000000e-08  5.0000000000000003e-10  5.0000000000000003e-10  4.1426890000000001e-06 -6.3985380000000002e-08  1.0000000000000000
 5.3500000000000003e-08  5.0000000000000003e-10  5.0000000000000003e-10  6.1241189999999998e-06 -6.5714420000000004e-08  1.0000000000000000
 5.4499999999999998e-08  5.0000000000000003e-10  5.0000000000000003e-10  8.4679705000000002e-06 -6.4162629999999998e-08  1.0000000000000000
 5.5500000000000001e-08  5.0000000000000003e-10  5.0000000000000003e-10  1.1313908500000000e-05 -7.0927929999999996e-08  1.0000000000000000
 5.6500000000000003e-08  5.0000000000000003e-10  5.0000000000000003e-10  1.4813439499999999e-05 -7.8586079999999999e-08  1.0000000000000000
 5.7499999999999999e-08  5.0000000000000003e-10  5.0000000000000003e-10  1.9167413000000001e-05 -7.9643020000000000e-08  1.0000000000000000
 5.8500000000000001e-08  5.0000000000000003e-10  5.0000000000000003e-10  2.4640773999999998e-05 -7.2739819999999997e-08  1.0000000000000000
 5.9500000000000003e-08  5.0000000000000003e-10  5.0000000000000003e-10  3.1536993999999997e-05 -7.0149774000000004e-08  1.0000000000000000
 6.0500000000000006e-08  5.0000000000000003e-10  5.0000000000000003e-10  4.0260160000000002e-05 -6.6006070000000005e-08  1.0000000000000000
 6.1500000000000001e-08  5.0000000000000003e-10  5.0000000000000003e-10  5.1300783999999998e-05 -5.8759060000000003e-08  1.0000000000000000
 6.2499999999999997e-08  5.0000000000000003e-10  5.0000000000000003e-10  6.5313279999999995e-05 -5.9588081999999997e-08  1.0000000000000000
 6.3500000000000006e-08  5.0000000000000003e-10  5.0000000000000003e-10  8.3073270000000001e-05 -5.8140173999999999e-08  1.0000000000000000
 6.4500000000000002e-08  5.0000000000000003e-10  5.0000000000000003e-10  0.00010564481600000000 -6.1718149999999999e-08  1.0000000000000000
 6.5499999999999998e-08  5.0000000000000003e-10  5.0000000000000003e-10  0.00013429220000000001 -5.8642968000000001e-08  1.0000000000000000
 6.6500000000000007e-08  5.0000000000000003e-10  5.0000000000000003e-10  0.00017066535999999999 -5.4473679999999999e-08  1.0000000000000000
 6.7500000000000002e-08  5.0000000000000003e-10  5.0000000000000003e-10  0.00021685705000000000 -4.5540935999999997e-08  1.0000000000000000
 6.8499999999999998e-08  5.0000000000000003e-10  5.0000000000000003e-10  0.00027552662999999998 -4.2202718000000000e-08  1.0000000000000000
 6.9500000000000007e-08  5.0000000000000003e-10  5.0000000000000003e-10  0.00035002964000000001 -3.7836536000000001e-08  1.0000000000000000
 7.0500000000000003e-08  5.0000000000000003e-10  5.0000000000000003e-10  0.00044466264000000001 -3.9582310000000003e-08  1.0000000000000000
 7.1499999999999998e-08  5.0000000000000003e-10  5.0000000000000003e-10  0.00056484307000000003 -3.4792519999999998e-08  0.99999979999999999
 7.2500000000000007e-08  5.0000000000000003e-10  5.0000000000000003e-10  0.00071743570000000001 -2.1379860999999999e-08  0.99999976000000002
 7.3500000000000003e-08  5.0000000000000003e-10  5.0000000000000003e-10  0.00091126124999999999 -1.4388860000000001e-08  0.99999959999999999
 7.4499999999999999e-08  5.0000000000000003e-10  5.0000000000000003e-10  0.0011574014999999999  3.1783678000000002e-09  0.99999939999999998
 7.5500000000000008e-08  5.0000000000000003e-10  5.0000000000000003e-10  0.0014700119999999999 -9.0755050000000007e-09  0.99999890000000002
 7.6500000000000003e-08  5.0000000000000003e-10  5.0000000000000003e-10  0.0018670056999999999 -3.5545610000000001e-09  0.99999830000000001
 7.7499999999999999e-08  5.0000000000000003e-10  5.0000000000000003e-10  0.0023711962000000000 -5.5850347000000004e-09  0.99999726000000000
 7.8500000000000008e-08  5.0000000000000003e-10  5.0000000000000003e-10  0.0030115089999999999 -6.3963768000000000e-09  0.99999547000000000
 7.9500000000000004e-08  5.0000000000000003e-10  5.0000000000000003e-10  0.0038246833999999999 -2.3131248000000000e-08  0.99999267000000003
 8.0500000000000000e-08  5.0000000000000003e-10  5.0000000000000003e-10  0.0048573753000000002 -1.1126382499999999e-08  0.99998825999999996
 8.1500000000000008e-08  5.0000000000000003e-10  5.0000000000000003e-10  0.0061688675000000004 -1.1211645000000001e-08  0.99998105000000004
 8.2500000000000004e-08  5.0000000000000003e-10  5.0000000000000003e-10  0.0078343530000000005 -1.1836697000000000e-08  0.99996929999999995
 8.3500000000000000e-08  5.0000000000000003e-10  5.0000000000000003e-10  0.0099493810000000002 -1.8157985000000001e-08  0.99995049999999996
 8.4500000000000009e-08  5.0000000000000003e-10  5.0000000000000003e-10  0.012635225000000000 -1.7924726999999999e-08  0.99992020000000004
 8.5500000000000005e-08  5.0000000000000003e-10  5.0000000000000003e-10  0.016045831000000000 -1.1366485000000000e-08  0.99987124999999999
 8.6500000000000000e-08  5.0000000000000003e-10  5.0000000000000003e-10  0.020376569000000001 -2.1773264000000001e-08  0.99979245999999999
 8.7500000000000009e-08  5.0000000000000003e-10  5.0000000000000003e-10  0.025875248000000000 -2.4636783000000001e-08  0.99966520000000003
 8.8500000000000005e-08  5.0000000000000003e-10  5.0000000000000003e-10  0.032856020000000000 -2.0527632999999999e-08  0.99946009999999996
 8.9500000000000001e-08  5.0000000000000003e-10  5.0000000000000003e-10  0.041716795000000001 -3.9235996999999999e-09  0.99912950000000000
 9.0500000000000010e-08  5.0000000000000003e-10  5.0000000000000003e-10  0.052960800000000002 -3.0665096999999999e-09  0.99859659999999995
 9.1500000000000005e-08  5.0000000000000003e-10  5.0000000000000003e-10  0.067222859999999995  6.6158349999999998e-09  0.99773805999999998
 9.2500000000000001e-08  5.0000000000000003e-10  5.0000000000000003e-10  0.085300795999999998  1.0140318000000001e-08  0.99635523999999998
 9.3500000000000010e-08  5.0000000000000003e-10  5.0000000000000003e-10  0.10819103600000000  2.3355666000000002e-09  0.99413019999999996
 9.4500000000000006e-08  5.0000000000000003e-10  5.0000000000000003e-10  0.13712540000000001 -1.0986143999999999e-09  0.99055369999999998
 9.5500000000000002e-08  5.0000000000000003e-10  5.0000000000000003e-10  0.17360123000000000 -1.2947267000000001e-08  0.98481609999999997
 9.6500000000000010e-08  5.0000000000000003e-10  5.0000000000000003e-10  0.21938689000000000 -8.8566679999999996e-09  0.97563803000000004
 9.7500000000000006e-08  5.0000000000000003e-10  5.0000000000000003e-10  0.27646589999999999 -1.7592436000000000e-08  0.96102379999999998
 9.8500000000000002e-08  5.0000000000000003e-10  5.0000000000000003e-10  0.34684991999999998 -1.6494546000000001e-08  0.93792063000000003
 9.9499999999999998e-08  5.0000000000000003e-10  5.0000000000000003e-10  0.43214035000000001 -1.6678825000000000e-08  0.90180640000000001
# End: Data Text
# End: Segment
