# OOMMF: irregular mesh v1.0
# Segment count: 1
# Begin: Segment
# Begin: Header
# Title: m
# Desc: Total simulation time:  0  s
# meshtype: irregular
# meshunit: m
# pointcount: 100
# xstepsize: 1.0000000000000001e-09
# ystepsize: 1.0000000000000001e-09
# zstepsize: 1.0000000000000001e-09
# xmin: 0
# ymin: 0
# zmin: 0
# xmax: 1.0000000000000001e-07
# ymax: 1.0000000000000001e-09
# zmax: 1.0000000000000001e-09
# valueunit: 1
# valuemultiplier: 1
# ValueRangeMinMag: 0.99999997196842871
# ValueRangeMaxMag: 1.0000001078643341
# End: Header
# Begin: Data Text
 5.0000000000000003e-10  5.0000000000000003e-10  5.0000000000000003e-10 -9.9078889999999995e-09  0.61344929999999998  0.78973420000000005
 1.5000000000000002e-09  5.0000000000000003e-10  5.0000000000000003e-10 -7.4566814999999996e-09  0.53148530000000005  0.84706753000000001
 2.5000000000000001e-09  5.0000000000000003e-10  5.0000000000000003e-10 -1.2274476499999999e-08  0.45649339999999999  0.88972689999999999
 3.5000000000000003e-09  5.0000000000000003e-10  5.0000000000000003e-10 -9.4243670000000001e-09  0.38957419999999998  0.92099520000000001
 4.5000000000000006e-09  5.0000000000000003e-10  5.0000000000000003e-10 -5.3908669999999999e-09  0.33090976000000000  0.94366245999999998
 5.5000000000000004e-09  5.0000000000000003e-10  5.0000000000000003e-10 -7.5919699999999998e-09  0.28012680000000001  0.95996300000000001
 6.5000000000000011e-09  5.0000000000000003e-10  5.0000000000000003e-10 -3.0281082000000000e-09  0.23655857000000000  0.97161719999999996
 7.5000000000000010e-09  5.0000000000000003e-10  5.0000000000000003e-10  7.2675913999999997e-09  0.19941713000000000  0.97991479999999997
 8.5000000000000000e-09  5.0000000000000003e-10  5.0000000000000003e-10  1.1336203000000000e-08  0.16789691000000001  0.98580456000000005
 9.5000000000000007e-09  5.0000000000000003e-10  5.0000000000000003e-10  1.9471189000000000e-08  0.14123269999999999  0.98997647000000000
 1.0500000000000000e-08  5.0000000000000003e-10  5.0000000000000003e-10  2.4467106000000001e-08  0.11872745000000000  0.99292689999999995
 1.1500000000000000e-08  5.0000000000000003e-10  5.0000000000000003e-10  2.7151781000000000e-08  0.099763089999999999  0.99501119999999998
 1.2500000000000001e-08  5.0000000000000003e-10  5.0000000000000003e-10  2.2222882999999999e-08  0.083800739999999999  0.99648260000000000
 1.3500000000000000e-08  5.0000000000000003e-10  5.0000000000000003e-10  1.6636927999999999e-08  0.070376075999999996  0.99752050000000003
 1.4500000000000001e-08  5.0000000000000003e-10  5.0000000000000003e-10  1.1987161500000000e-08  0.059092211999999998  0.99825260000000005
 1.5500000000000003e-08  5.0000000000000003e-10  5.0000000000000003e-10  9.7246930000000008e-09  0.049611639999999999  0.99876856999999997
 1.6500000000000002e-08  5.0000000000000003e-10  5.0000000000000003e-10  5.4280030000000000e-09  0.041648499999999998  0.99913240000000003
 1.7500000000000001e-08  5.0000000000000003e-10  5.0000000000000003e-10  3.3453576000000000e-10  0.034961316999999999  0.99938870000000002
 1.8500000000000004e-08  5.0000000000000003e-10  5.0000000000000003e-10 -3.8547974000000004e-09  0.029346487000000001  0.99956935999999996
 1.9500000000000003e-08  5.0000000000000003e-10  5.0000000000000003e-10 -1.0604203000000000e-08  0.024632550000000000  0.99969660000000005
 2.0500000000000002e-08  5.0000000000000003e-10  5.0000000000000003e-10 -1.5515605000000001e-08  0.020675259000000001  0.99978626000000004
 2.1500000000000004e-08  5.0000000000000003e-10  5.0000000000000003e-10 -1.4469810000000001e-08  0.017353348000000001  0.99984943999999998
 2.2500000000000003e-08  5.0000000000000003e-10  5.0000000000000003e-10 -1.4249242000000000e-08  0.014564887000000000  0.99989395999999997
 2.3500000000000002e-08  5.0000000000000003e-10  5.0000000000000003e-10 -5.7939929999999999e-09  0.012224275999999999  0.99992526000000004
 2.4500000000000004e-08  5.0000000000000003e-10  5.0000000000000003e-10  4.5776963999999997e-09  0.010259608999999999  0.99994737000000000
 2.5500000000000003e-08  5.0000000000000003e-10  5.0000000000000003e-10  9.8333300000000004e-09  0.0086105030000000003  0.99996289999999999
 2.6500000000000002e-08  5.0000000000000003e-10  5.0000000000000003e-10  1.8567533000000001e-08  0.0072262697000000002  0.99997389999999997
 2.7500000000000001e-08  5.0000000000000003e-10  5.0000000000000003e-10  2.4329770000000000e-08  0.0060643475000000001  0.99998160000000003
 2.8500000000000004e-08  5.0000000000000003e-10  5.0000000000000003e-10  1.9993827000000001e-08  0.0050890129999999999  0.99998706999999998
 2.9500000000000003e-08  5.0000000000000003e-10  5.0000000000000003e-10  2.1227763000000000e-08  0.0042702466999999999  0.99999090000000002
 3.0500000000000002e-08  5.0000000000000003e-10  5.0000000000000003e-10  1.2563903000000000e-08  0.0035828756999999999  0.99999360000000004
 3.1499999999999998e-08  5.0000000000000003e-10  5.0000000000000003e-10  9.2339609999999993e-09  0.0030057364999999999  0.99999550000000004
 3.2500000000000000e-08  5.0000000000000003e-10  5.0000000000000003e-10  8.9665760000000007e-09  0.0025210730000000000  0.99999689999999997
 3.3500000000000002e-08  5.0000000000000003e-10  5.0000000000000003e-10  8.6849269999999996e-09  0.0021139704999999999  0.99999780000000005
 3.4499999999999998e-08  5.0000000000000003e-10  5.0000000000000003e-10  3.7058056999999999e-09  0.0017719157000000000  0.99999850000000001
 3.5500000000000000e-08  5.0000000000000003e-10  5.0000000000000003e-10 -2.3053652000000000e-09  0.0014843898999999999  0.99999890000000002
 3.6500000000000003e-08  5.0000000000000003e-10  5.0000000000000003e-10 -4.2588150000000000e-09  0.0012425523000000000  0.99999919999999998
 3.7499999999999998e-08  5.0000000000000003e-10  5.0000000000000003e-10 -9.4683449999999999e-09  0.0010389574000000000  0.99999945999999995
 3.8500000000000001e-08  5.0000000000000003e-10  5.0000000000000003e-10 -1.1120512000000001e-08  0.00086733076000000003  0.99999970000000005
 3.9500000000000003e-08  5.0000000000000003e-10  5.0000000000000003e-10 -1.2821139000000001e-08  0.00072239669999999995  0.99999976000000002
 4.0499999999999999e-08  5.0000000000000003e-10  5.0000000000000003e-10 -9.8249580000000001e-09  0.00059971289999999995  0.99999979999999999
 4.1500000000000001e-08  5.0000000000000003e-10  5.0000000000000003e-10 -9.5307149999999996e-09  0.00049547619999999997  0.99999994000000003
 4.2500000000000003e-08  5.0000000000000003e-10  5.0000000000000003e-10 -7.6189160000000000e-09  0.00040647885000000001  1.0000000000000000
 4.3499999999999999e-08  5.0000000000000003e-10  5.0000000000000003e-10 -1.0557577000000000e-08  0.00032999819999999998  1.0000000000000000
 4.4500000000000001e-08  5.0000000000000003e-10  5.0000000000000003e-10 -1.4535223999999999e-08  0.00026368490000000001  1.0000000000000000
 4.5500000000000004e-08  5.0000000000000003e-10  5.0000000000000003e-10 -1.0956221000000000e-08  0.00020548844000000001  1.0000000000000000
 4.6499999999999999e-08  5.0000000000000003e-10  5.0000000000000003e-10 -5.6800612999999999e-09  0.00015362635999999999  1.0000000000000000
 4.7500000000000002e-08  5.0000000000000003e-10  5.0000000000000003e-10  4.1857433999999998e-10  0.00010648866999999999  1.0000000000000000
 4.8500000000000004e-08  5.0000000000000003e-10  5.0000000000000003e-10  4.0052670000000000e-09  6.2621680000000002e-05  1.0000000000000000
 4.9500000000000000e-08  5.0000000000000003e-10  5.0000000000000003e-10  7.8425429999999994e-09  2.0687442999999999e-05  1.0000000000000000
 5.0500000000000002e-08  5.0000000000000003e-10  5.0000000000000003e-10  7.9884220000000006e-09 -2.0625174999999999e-05  1.0000000000000000
 5.1499999999999998e-08  5.0000000000000003e-10  5.0000000000000003e-10 -8.5705069999999997e-10 -6.2575295000000003e-05  1.0000000000000000
 5.2500000000000000e-08  5.0000000000000003e-10  5.0000000000000003e-10 -1.2353412000000000e-08 -0.00010645352000000000  1.0000000000000000
 5.3500000000000003e-08  5.0000000000000003e-10  5.0000000000000003e-10 -1.4645636999999999e-08 -0.00015361260999999999  1.0000000000000000
 5.4499999999999998e-08  5.0000000000000003e-10  5.0000000000000003e-10 -1.9764793999999999e-08 -0.00020550140000000000  1.0000000000000000
 5.5500000000000001e-08  5.0000000000000003e-10  5.0000000000000003e-10 -1.6783130000000001e-08 -0.00026371032999999999  1.0000000000000000
 5.6500000000000003e-08  5.0000000000000003e-10  5.0000000000000003e-10 -1.3526758000000000e-08 -0.00033003820000000001  1.0000000000000000
 5.7499999999999999e-08  5.0000000000000003e-10  5.0000000000000003e-10 -1.2091404000000000e-08 -0.00040651756000000000  1.0000000000000000
 5.8500000000000001e-08  5.0000000000000003e-10  5.0000000000000003e-10 -1.3235807000000000e-08 -0.00049550883999999998  0.99999994000000003
 5.9500000000000003e-08  5.0000000000000003e-10  5.0000000000000003e-10 -1.0175167000000000e-08 -0.00059974013000000000  0.99999990000000005
 6.0500000000000006e-08  5.0000000000000003e-10  5.0000000000000003e-10 -7.8031529999999996e-09 -0.00072243549999999996  0.99999979999999999
 6.1500000000000001e-08  5.0000000000000003e-10  5.0000000000000003e-10 -4.0326484000000001e-10 -0.00086735626000000005  0.99999963999999997
 6.2499999999999997e-08  5.0000000000000003e-10  5.0000000000000003e-10  2.6735450000000002e-09 -0.0010389786000000001  0.99999945999999995
 6.3500000000000006e-08  5.0000000000000003e-10  5.0000000000000003e-10  5.6138325000000002e-09 -0.0012425577000000001  0.99999919999999998
 6.4500000000000002e-08  5.0000000000000003e-10  5.0000000000000003e-10  2.4045800000000000e-09 -0.0014843949999999999  0.99999899999999997
 6.5499999999999998e-08  5.0000000000000003e-10  5.0000000000000003e-10 -1.3639208000000000e-09 -0.0017719112000000000  0.99999850000000001
 6.6500000000000007e-08  5.0000000000000003e-10  5.0000000000000003e-10 -1.3722587500000001e-08 -0.0021139487999999999  0.99999784999999997
 6.7500000000000002e-08  5.0000000000000003e-10  5.0000000000000003e-10 -2.2810847999999999e-08 -0.0025210418000000002  0.99999689999999997
 6.8499999999999998e-08  5.0000000000000003e-10  5.0000000000000003e-10 -2.8370652000000001e-08 -0.0030057031999999998  0.99999547000000000
 6.9500000000000007e-08  5.0000000000000003e-10  5.0000000000000003e-10 -3.0830683999999998e-08 -0.0035828480000000000  0.99999360000000004
 7.0500000000000003e-08  5.0000000000000003e-10  5.0000000000000003e-10 -3.1185678000000002e-08 -0.0042702390000000003  0.99999093999999999
 7.1499999999999998e-08  5.0000000000000003e-10  5.0000000000000003e-10 -2.2852207000000002e-08 -0.0050890160000000000  0.99998706999999998
 7.2500000000000007e-08  5.0000000000000003e-10  5.0000000000000003e-10 -1.7494801999999999e-08 -0.0060643640000000000  0.99998164000000000
 7.3500000000000003e-08  5.0000000000000003e-10  5.0000000000000003e-10 -6.1581390000000001e-09 -0.0072262810000000002  0.99997389999999997
 7.4499999999999999e-08  5.0000000000000003e-10  5.0000000000000003e-10 -2.8586790000000000e-09 -0.0086104939999999998  0.99996289999999999
 7.5500000000000008e-08  5.0000000000000003e-10  5.0000000000000003e-10  6.0393646000000003e-10 -0.010259592999999999  0.99994740000000004
 7.6500000000000003e-08  5.0000000000000003e-10  5.0000000000000003e-10  1.6871761000000000e-09 -0.012224268000000000  0.99992526000000004
 7.7499999999999999e-08  5.0000000000000003e-10  5.0000000000000003e-10  1.0094501600000000e-10 -0.014564875999999999  0.99989395999999997
 7.8500000000000008e-08  5.0000000000000003e-10  5.0000000000000003e-10  2.0954405000000001e-09 -0.017353344999999999  0.99984943999999998
 7.9500000000000004e-08  5.0000000000000003e-10  5.0000000000000003e-10 -4.9701225999999996e-10 -0.020675263999999999  0.99978626000000004
 8.0500000000000000e-08  5.0000000000000003e-10  5.0000000000000003e-10 -6.4305955999999999e-09 -0.024632550000000000  0.99969655000000002
 8.1500000000000008e-08  5.0000000000000003e-10  5.0000000000000003e-10 -9.6089240000000008e-09 -0.029346484999999999  0.99956935999999996
 8.2500000000000004e-08  5.0000000000000003e-10  5.0000000000000003e-10 -1.9218482999999999e-08 -0.034961313000000001  0.99938875000000005
 8.3500000000000000e-08  5.0000000000000003e-10  5.0000000000000003e-10 -2.6213315999999999e-08 -0.041648490000000003  0.99913240000000003
 8.4500000000000009e-08  5.0000000000000003e-10  5.0000000000000003e-10 -3.1141920000000003e-08 -0.049611639999999999  0.99876860000000001
 8.5500000000000005e-08  5.0000000000000003e-10  5.0000000000000003e-10 -2.9438434000000001e-08 -0.059092216000000003  0.99825249999999999
 8.6500000000000000e-08  5.0000000000000003e-10  5.0000000000000003e-10 -2.7521898000000000e-08 -0.070376090000000002  0.99752057000000005
 8.7500000000000009e-08  5.0000000000000003e-10  5.0000000000000003e-10 -2.3691993999999999e-08 -0.083800769999999997  0.99648260000000000
 8.8500000000000005e-08  5.0000000000000003e-10  5.0000000000000003e-10 -1.4244258000000000e-08 -0.099763119999999997  0.99501119999999998
 8.9500000000000001e-08  5.0000000000000003e-10  5.0000000000000003e-10 -1.1675115999999999e-08 -0.11872748000000000  0.99292696000000003
 9.0500000000000010e-08  5.0000000000000003e-10  5.0000000000000003e-10 -8.5367064999999997e-09 -0.14123269999999999  0.98997647000000000
 9.1500000000000005e-08  5.0000000000000003e-10  5.0000000000000003e-10 -3.0361550000000000e-09 -0.16789688000000000  0.98580456000000005
 9.2500000000000001e-08  5.0000000000000003e-10  5.0000000000000003e-10 -2.3974837999999998e-09 -0.19941707000000000  0.97991470000000003
 9.3500000000000010e-08  5.0000000000000003e-10  5.0000000000000003e-10  1.2100247000000000e-09 -0.23655856000000000  0.97161734000000000
 9.4500000000000006e-08  5.0000000000000003e-10  5.0000000000000003e-10  6.9585740000000003e-09 -0.28012674999999998  0.95996300000000001
 9.5500000000000002e-08  5.0000000000000003e-10  5.0000000000000003e-10  1.5073834000000000e-08 -0.33090973000000001  0.94366240000000001
 9.6500000000000010e-08  5.0000000000000003e-10  5.0000000000000003e-10  1.6389489999999999e-08 -0.38957414000000001  0.92099509999999996
 9.7500000000000006e-08  5.0000000000000003e-10  5.0000000000000003e-10  2.4623001999999999e-08 -0.45649338000000000  0.88972689999999999
 9.8500000000000002e-08  5.0000000000000003e-10  5.0000000000000003e-10  2.3884082000000000e-08 -0.53148530000000005  0.84706753000000001
 9.9499999999999998e-08  5.0000000000000003e-10  5.0000000000000003e-10  2.6062096000000000e-08 -0.61344920000000003  0.78973420000000005
# End: Data Text
# End: Segment
