# OOMMF: irregular mesh v1.0
# Segment count: 1
# Begin: Segment
# Begin: Header
# Title: m
# Desc: Total simulation time:  0  s
# meshtype: irregular
# meshunit: m
# pointcount: 100
# xstepsize: 1.0000000000000001e-09
# ystepsize: 1.0000000000000001e-09
# zstepsize: 1.0000000000000001e-09
# xmin: 0
# ymin: 0
# zmin: 0
# xmax: 1.0000000000000001e-07
# ymax: 1.0000000000000001e-09
# zmax: 1.0000000000000001e-09
# valueunit: 1
# valuemultiplier: 1
# ValueRangeMinMag: 0.99999996623021614
# ValueRangeMaxMag: 1.0000001170217825
# End: Header
# Begin: Data Text
 5.0000000000000003e-10  5.0000000000000003e-10  5.0000000000000003e-10 -0.61344710000000002  4.3572816000000002e-09  0.78973579999999999
 1.5000000000000002e-09  5.0000000000000003e-10  5.0000000000000003e-10 -0.53148320000000004  6.6618360000000002e-09  0.84706890000000001
 2.5000000000000001e-09  5.0000000000000003e-10  5.0000000000000003e-10 -0.45649117000000000  1.1731440000000001e-08  0.88972799999999996
 3.5000000000000003e-09  5.0000000000000003e-10  5.0000000000000003e-10 -0.38957202000000002  1.0762171999999999e-08  0.92099609999999998
 4.5000000000000006e-09  5.0000000000000003e-10  5.0000000000000003e-10 -0.33090757999999998  5.8527840000000002e-09  0.94366320000000004
 5.5000000000000004e-09  5.0000000000000003e-10  5.0000000000000003e-10 -0.28012470000000000 -1.9470000000000000e-09  0.95996369999999998
 6.5000000000000011e-09  5.0000000000000003e-10  5.0000000000000003e-10 -0.23655656000000000 -3.0019285999999998e-11  0.97161776000000000
 7.5000000000000010e-09  5.0000000000000003e-10  5.0000000000000003e-10 -0.19941522000000000  4.5790545000000000e-09  0.97991514000000002
 8.5000000000000000e-09  5.0000000000000003e-10  5.0000000000000003e-10 -0.16789512000000001  8.2385860000000006e-09  0.98580486000000001
 9.5000000000000007e-09  5.0000000000000003e-10  5.0000000000000003e-10 -0.14123102000000001  1.1504412000000001e-08  0.98997663999999996
 1.0500000000000000e-08  5.0000000000000003e-10  5.0000000000000003e-10 -0.11872590000000000  8.1632660000000005e-09  0.99292709999999995
 1.1500000000000000e-08  5.0000000000000003e-10  5.0000000000000003e-10 -0.099761635000000001  1.0542958000000000e-08  0.99501145000000002
 1.2500000000000001e-08  5.0000000000000003e-10  5.0000000000000003e-10 -0.083799349999999995  5.1306750000000004e-09  0.99648270000000005
 1.3500000000000000e-08  5.0000000000000003e-10  5.0000000000000003e-10 -0.070374794000000004  1.9726480000000000e-09  0.99752070000000004
 1.4500000000000001e-08  5.0000000000000003e-10  5.0000000000000003e-10 -0.059090997999999999  1.1084452000000000e-09  0.99825269999999999
 1.5500000000000003e-08  5.0000000000000003e-10  5.0000000000000003e-10 -0.049610488000000001  1.2131867000000000e-09  0.99876869999999995
 1.6500000000000002e-08  5.0000000000000003e-10  5.0000000000000003e-10 -0.041647419999999997  3.5110776999999999e-09  0.99913240000000003
 1.7500000000000001e-08  5.0000000000000003e-10  5.0000000000000003e-10 -0.034960314999999999  4.2005450000000004e-09  0.99938870000000002
 1.8500000000000004e-08  5.0000000000000003e-10  5.0000000000000003e-10 -0.029345560000000000  5.9745612999999997e-09  0.99956929999999999
 1.9500000000000003e-08  5.0000000000000003e-10  5.0000000000000003e-10 -0.024631686999999999  9.2813790000000006e-09  0.99969660000000005
 2.0500000000000002e-08  5.0000000000000003e-10  5.0000000000000003e-10 -0.020674453999999998  9.5620349999999994e-09  0.99978626000000004
 2.1500000000000004e-08  5.0000000000000003e-10  5.0000000000000003e-10 -0.017352583000000001  5.4420719999999998e-09  0.99984949999999995
 2.2500000000000003e-08  5.0000000000000003e-10  5.0000000000000003e-10 -0.014564170499999999  5.9992633000000000e-09  0.99989395999999997
 2.3500000000000002e-08  5.0000000000000003e-10  5.0000000000000003e-10 -0.012223606999999999  4.6587970000000004e-09  0.99992530000000002
 2.4500000000000004e-08  5.0000000000000003e-10  5.0000000000000003e-10 -0.010258988500000000  1.0411574000000001e-08  0.99994740000000004
 2.5500000000000003e-08  5.0000000000000003e-10  5.0000000000000003e-10 -0.0086099409999999994  6.9781979999999999e-09  0.99996289999999999
 2.6500000000000002e-08  5.0000000000000003e-10  5.0000000000000003e-10 -0.0072257616999999996  5.4732117000000001e-09  0.99997389999999997
 2.7500000000000001e-08  5.0000000000000003e-10  5.0000000000000003e-10 -0.0060638749999999998 -1.5522098000000001e-09  0.99998164000000000
 2.8500000000000004e-08  5.0000000000000003e-10  5.0000000000000003e-10 -0.0050885640000000003 -1.6530604000000000e-09  0.99998706999999998
 2.9500000000000003e-08  5.0000000000000003e-10  5.0000000000000003e-10 -0.0042698190000000002 -2.4522613000000000e-09  0.99999093999999999
 3.0500000000000002e-08  5.0000000000000003e-10  5.0000000000000003e-10 -0.0035824578000000001 -3.1901537000000001e-09  0.99999369999999999
 3.1499999999999998e-08  5.0000000000000003e-10  5.0000000000000003e-10 -0.0030053217999999999  9.9547789999999991e-10  0.99999550000000004
 3.2500000000000000e-08  5.0000000000000003e-10  5.0000000000000003e-10 -0.0025206887999999999 -2.1701771000000000e-09  0.99999689999999997
 3.3500000000000002e-08  5.0000000000000003e-10  5.0000000000000003e-10 -0.0021136220999999999 -1.9269872000000001e-09  0.99999780000000005
 3.4499999999999998e-08  5.0000000000000003e-10  5.0000000000000003e-10 -0.0017716177000000001 -2.8506308000000002e-10  0.99999844999999998
 3.5500000000000000e-08  5.0000000000000003e-10  5.0000000000000003e-10 -0.0014841186000000000  5.2694475000000003e-09  0.99999899999999997
 3.6500000000000003e-08  5.0000000000000003e-10  5.0000000000000003e-10 -0.0012422916000000000  8.6881869999999998e-09  0.99999930000000004
 3.7499999999999998e-08  5.0000000000000003e-10  5.0000000000000003e-10 -0.0010387150000000000  4.2924175000000004e-09  0.99999950000000004
 3.8500000000000001e-08  5.0000000000000003e-10  5.0000000000000003e-10 -0.00086711039999999996  7.3784600000000002e-09  0.99999970000000005
 3.9500000000000003e-08  5.0000000000000003e-10  5.0000000000000003e-10 -0.00072219734999999995  7.3469547000000004e-10  0.99999979999999999
 4.0499999999999999e-08  5.0000000000000003e-10  5.0000000000000003e-10 -0.00059951795000000004  2.8090063999999999e-10  0.99999990000000005
 4.1500000000000001e-08  5.0000000000000003e-10  5.0000000000000003e-10 -0.00049530479999999996 -4.6441815000000000e-09  0.99999990000000005
 4.2500000000000003e-08  5.0000000000000003e-10  5.0000000000000003e-10 -0.00040633944000000000 -4.1307620000000001e-09  1.0000000000000000
 4.3499999999999999e-08  5.0000000000000003e-10  5.0000000000000003e-10 -0.00032987629999999999 -4.5898090000000004e-09  1.0000000000000000
 4.4500000000000001e-08  5.0000000000000003e-10  5.0000000000000003e-10 -0.00026357525999999999 -1.6931309000000000e-09  1.0000000000000000
 4.5500000000000004e-08  5.0000000000000003e-10  5.0000000000000003e-10 -0.00020539616999999999 -2.8940452000000001e-09  1.0000000000000000
 4.6499999999999999e-08  5.0000000000000003e-10  5.0000000000000003e-10 -0.00015354069999999999 -2.9536187000000000e-09  1.0000000000000000
 4.7500000000000002e-08  5.0000000000000003e-10  5.0000000000000003e-10 -0.00010641234999999999 -4.0262749999999999e-09  1.0000000000000000
 4.8500000000000004e-08  5.0000000000000003e-10  5.0000000000000003e-10 -6.2562499999999996e-05 -3.6859034000000001e-09  1.0000000000000000
 4.9500000000000000e-08  5.0000000000000003e-10  5.0000000000000003e-10 -2.0637995000000001e-05 -1.3114453000000000e-09  1.0000000000000000
 5.0500000000000002e-08  5.0000000000000003e-10  5.0000000000000003e-10  2.0641934999999999e-05 -1.1290323999999999e-09  1.0000000000000000
 5.1499999999999998e-08  5.0000000000000003e-10  5.0000000000000003e-10  6.2563624000000004e-05 -1.7606291999999999e-09  1.0000000000000000
 5.2500000000000000e-08  5.0000000000000003e-10  5.0000000000000003e-10  0.00010641017400000000 -5.4716476000000001e-10  1.0000000000000000
 5.3500000000000003e-08  5.0000000000000003e-10  5.0000000000000003e-10  0.00015354643999999999 -1.1706410000000000e-10  1.0000000000000000
 5.4499999999999998e-08  5.0000000000000003e-10  5.0000000000000003e-10  0.00020539502000000001  1.1295296000000000e-09  1.0000000000000000
 5.5500000000000001e-08  5.0000000000000003e-10  5.0000000000000003e-10  0.00026358373000000002 -2.8587420000000001e-10  1.0000000000000000
 5.6500000000000003e-08  5.0000000000000003e-10  5.0000000000000003e-10  0.00032988047999999999 -4.3879495999999998e-09  1.0000000000000000
 5.7499999999999999e-08  5.0000000000000003e-10  5.0000000000000003e-10  0.00040634560000000000 -5.4458250000000001e-09  0.99999994000000003
 5.8500000000000001e-08  5.0000000000000003e-10  5.0000000000000003e-10  0.00049531314000000003 -7.6708420000000006e-09  0.99999994000000003
 5.9500000000000003e-08  5.0000000000000003e-10  5.0000000000000003e-10  0.00059953396000000003 -6.3298663999999999e-09  0.99999990000000005
 6.0500000000000006e-08  5.0000000000000003e-10  5.0000000000000003e-10  0.00072220800000000001 -5.0580353000000002e-09  0.99999979999999999
 6.1500000000000001e-08  5.0000000000000003e-10  5.0000000000000003e-10  0.00086712110000000003 -4.6871946000000000e-09  0.99999970000000005
 6.2499999999999997e-08  5.0000000000000003e-10  5.0000000000000003e-10  0.0010387280000000000 -6.7341244000000001e-09  0.99999950000000004
 6.3500000000000006e-08  5.0000000000000003e-10  5.0000000000000003e-10  0.0012423066999999999 -7.7963339999999997e-09  0.99999930000000004
 6.4500000000000002e-08  5.0000000000000003e-10  5.0000000000000003e-10  0.0014841192000000000 -4.0847059999999996e-09  0.99999890000000002
 6.5499999999999998e-08  5.0000000000000003e-10  5.0000000000000003e-10  0.0017715986999999999 -4.5044177000000001e-09  0.99999844999999998
 6.6500000000000007e-08  5.0000000000000003e-10  5.0000000000000003e-10  0.0021136047000000001  6.3259586000000003e-10  0.99999784999999997
 6.7500000000000002e-08  5.0000000000000003e-10  5.0000000000000003e-10  0.0025206688000000001  6.8262964000000004e-09  0.99999689999999997
 6.8499999999999998e-08  5.0000000000000003e-10  5.0000000000000003e-10  0.0030052924999999999  1.2174314000000000e-08  0.99999547000000000
 6.9500000000000007e-08  5.0000000000000003e-10  5.0000000000000003e-10  0.0035824014000000000  1.3871904499999999e-08  0.99999360000000004
 7.0500000000000003e-08  5.0000000000000003e-10  5.0000000000000003e-10  0.0042697660000000004  1.1193047000000000e-08  0.99999093999999999
 7.1499999999999998e-08  5.0000000000000003e-10  5.0000000000000003e-10  0.0050885050000000001  9.5320765000000002e-09  0.99998706999999998
 7.2500000000000007e-08  5.0000000000000003e-10  5.0000000000000003e-10  0.0060638165999999999  1.6274900000000000e-08  0.99998169999999997
 7.3500000000000003e-08  5.0000000000000003e-10  5.0000000000000003e-10  0.0072256980000000000  1.6897221000000000e-08  0.99997389999999997
 7.4499999999999999e-08  5.0000000000000003e-10  5.0000000000000003e-10  0.0086098979999999995  1.8800260000000000e-08  0.99996300000000005
 7.5500000000000008e-08  5.0000000000000003e-10  5.0000000000000003e-10  0.010258971000000000  1.5302268000000000e-08  0.99994740000000004
 7.6500000000000003e-08  5.0000000000000003e-10  5.0000000000000003e-10  0.012223608000000000  1.7754343999999999e-08  0.99992539999999996
 7.7499999999999999e-08  5.0000000000000003e-10  5.0000000000000003e-10  0.014564173999999999  1.2981877999999999e-08  0.99989395999999997
 7.8500000000000008e-08  5.0000000000000003e-10  5.0000000000000003e-10  0.017352572000000000  1.0267531000000001e-08  0.99984943999999998
 7.9500000000000004e-08  5.0000000000000003e-10  5.0000000000000003e-10  0.020674430000000001  6.7466894000000002e-09  0.99978626000000004
 8.0500000000000000e-08  5.0000000000000003e-10  5.0000000000000003e-10  0.024631659000000000  8.3436370000000002e-09  0.99969660000000005
 8.1500000000000008e-08  5.0000000000000003e-10  5.0000000000000003e-10  0.029345540000000000  5.8530927000000001e-09  0.99956935999999996
 8.2500000000000004e-08  5.0000000000000003e-10  5.0000000000000003e-10  0.034960302999999998  2.8397893000000000e-09  0.99938870000000002
 8.3500000000000000e-08  5.0000000000000003e-10  5.0000000000000003e-10  0.041647403999999999  1.9828932000000002e-09  0.99913240000000003
 8.4500000000000009e-08  5.0000000000000003e-10  5.0000000000000003e-10  0.049610462000000001  3.3901184000000002e-09  0.99876860000000001
 8.5500000000000005e-08  5.0000000000000003e-10  5.0000000000000003e-10  0.059090964000000003  7.3358819999999999e-09  0.99825269999999999
 8.6500000000000000e-08  5.0000000000000003e-10  5.0000000000000003e-10  0.070374779999999998  9.8714290000000006e-09  0.99752070000000004
 8.7500000000000009e-08  5.0000000000000003e-10  5.0000000000000003e-10  0.083799355000000006  9.0128630000000004e-09  0.99648272999999998
 8.8500000000000005e-08  5.0000000000000003e-10  5.0000000000000003e-10  0.099761639999999999  6.5263753999999997e-09  0.99501145000000002
 8.9500000000000001e-08  5.0000000000000003e-10  5.0000000000000003e-10  0.11872590000000000  5.8074424999999999e-09  0.99292712999999999
 9.0500000000000010e-08  5.0000000000000003e-10  5.0000000000000003e-10  0.14123103000000001  7.7501840000000007e-09  0.98997670000000004
 9.1500000000000005e-08  5.0000000000000003e-10  5.0000000000000003e-10  0.16789510999999999  9.4230510000000008e-09  0.98580486000000001
 9.2500000000000001e-08  5.0000000000000003e-10  5.0000000000000003e-10  0.19941519999999999  8.9305730000000002e-09  0.97991514000000002
 9.3500000000000010e-08  5.0000000000000003e-10  5.0000000000000003e-10  0.23655656999999999  6.6195462000000000e-09  0.97161776000000000
 9.4500000000000006e-08  5.0000000000000003e-10  5.0000000000000003e-10  0.28012471999999999  3.4555997999999999e-09  0.95996369999999998
 9.5500000000000002e-08  5.0000000000000003e-10  5.0000000000000003e-10  0.33090760000000002  4.0584376000000004e-09  0.94366320000000004
 9.6500000000000010e-08  5.0000000000000003e-10  5.0000000000000003e-10  0.38957193000000001 -2.7659750000000001e-09  0.92099600000000004
 9.7500000000000006e-08  5.0000000000000003e-10  5.0000000000000003e-10  0.45649119999999999 -1.1365906000000001e-09  0.88972799999999996
 9.8500000000000002e-08  5.0000000000000003e-10  5.0000000000000003e-10  0.53148320000000004 -8.7465480000000003e-09  0.84706884999999998
 9.9499999999999998e-08  5.0000000000000003e-10  5.0000000000000003e-10  0.61344719999999997 -9.0350579999999998e-09  0.78973579999999999
# End: Data Text
# End: Segment
